# vtk DataFile Version 2.0
Simplicial Mesh Example
ASCII
DATASET UNSTRUCTURED_GRID
POINTS 4730 double
0.000000e+00 0.000000e+00 5.519500e-01
4.000000e-02 0.000000e+00 5.519500e-01
4.000000e-02 0.000000e+00 5.480500e-01
2.650000e-02 0.000000e+00 5.480500e-01
2.650000e-02 0.000000e+00 0.000000e+00
2.500000e-02 0.000000e+00 0.000000e+00
2.500000e-02 0.000000e+00 5.500000e-01
0.000000e+00 0.000000e+00 5.500000e-01
2.352941e-03 0.000000e+00 5.519500e-01
4.705882e-03 0.000000e+00 5.519500e-01
7.058824e-03 0.000000e+00 5.519500e-01
9.411765e-03 0.000000e+00 5.519500e-01
1.176471e-02 0.000000e+00 5.519500e-01
1.411765e-02 0.000000e+00 5.519500e-01
1.647059e-02 0.000000e+00 5.519500e-01
1.882353e-02 0.000000e+00 5.519500e-01
2.117647e-02 0.000000e+00 5.519500e-01
2.352941e-02 0.000000e+00 5.519500e-01
2.588235e-02 0.000000e+00 5.519500e-01
2.823529e-02 0.000000e+00 5.519500e-01
3.058824e-02 0.000000e+00 5.519500e-01
3.294118e-02 0.000000e+00 5.519500e-01
3.529412e-02 0.000000e+00 5.519500e-01
3.764706e-02 0.000000e+00 5.519500e-01
4.000000e-02 0.000000e+00 5.500000e-01
3.662500e-02 0.000000e+00 5.480500e-01
3.325000e-02 0.000000e+00 5.480500e-01
2.987500e-02 0.000000e+00 5.480500e-01
2.650000e-02 0.000000e+00 5.430677e-01
2.650000e-02 0.000000e+00 5.380855e-01
2.650000e-02 0.000000e+00 5.331032e-01
2.650000e-02 0.000000e+00 5.281209e-01
2.650000e-02 0.000000e+00 5.231386e-01
2.650000e-02 0.000000e+00 5.181564e-01
2.650000e-02 0.000000e+00 5.131741e-01
2.650000e-02 0.000000e+00 5.081918e-01
2.650000e-02 0.000000e+00 5.032095e-01
2.650000e-02 0.000000e+00 4.982273e-01
2.650000e-02 0.000000e+00 4.932450e-01
2.650000e-02 0.000000e+00 4.882627e-01
2.650000e-02 0.000000e+00 4.832805e-01
2.650000e-02 0.000000e+00 4.782982e-01
2.650000e-02 0.000000e+00 4.733159e-01
2.650000e-02 0.000000e+00 4.683336e-01
2.650000e-02 0.000000e+00 4.633514e-01
2.650000e-02 0.000000e+00 4.583691e-01
2.650000e-02 0.000000e+00 4.533868e-01
2.650000e-02 0.000000e+00 4.484045e-01
2.650000e-02 0.000000e+00 4.434223e-01
2.650000e-02 0.000000e+00 4.384400e-01
2.650000e-02 0.000000e+00 4.334577e-01
2.650000e-02 0.000000e+00 4.284755e-01
2.650000e-02 0.000000e+00 4.234932e-01
2.650000e-02 0.000000e+00 4.185109e-01
2.650000e-02 0.000000e+00 4.135286e-01
2.650000e-02 0.000000e+00 4.085464e-01
2.650000e-02 0.000000e+00 4.035641e-01
2.650000e-02 0.000000e+00 3.985818e-01
2.650000e-02 0.000000e+00 3.935995e-01
2.650000e-02 0.000000e+00 3.886173e-01
2.650000e-02 0.000000e+00 3.836350e-01
2.650000e-02 0.000000e+00 3.786527e-01
2.650000e-02 0.000000e+00 3.736705e-01
2.650000e-02 0.000000e+00 3.686882e-01
2.650000e-02 0.000000e+00 3.637059e-01
2.650000e-02 0.000000e+00 3.587236e-01
2.650000e-02 0.000000e+00 3.537414e-01
2.650000e-02 0.000000e+00 3.487591e-01
2.650000e-02 0.000000e+00 3.437768e-01
2.650000e-02 0.000000e+00 3.387945e-01
2.650000e-02 0.000000e+00 3.338123e-01
2.650000e-02 0.000000e+00 3.288300e-01
2.650000e-02 0.000000e+00 3.238477e-01
2.650000e-02 0.000000e+00 3.188655e-01
2.650000e-02 0.000000e+00 3.138832e-01
2.650000e-02 0.000000e+00 3.089009e-01
2.650000e-02 0.000000e+00 3.039186e-01
2.650000e-02 0.000000e+00 2.989364e-01
2.650000e-02 0.000000e+00 2.939541e-01
2.650000e-02 0.000000e+00 2.889718e-01
2.650000e-02 0.000000e+00 2.839895e-01
2.650000e-02 0.000000e+00 2.790073e-01
2.650000e-02 0.000000e+00 2.740250e-01
2.650000e-02 0.000000e+00 2.690427e-01
2.650000e-02 0.000000e+00 2.640605e-01
2.650000e-02 0.000000e+00 2.590782e-01
2.650000e-02 0.000000e+00 2.540959e-01
2.650000e-02 0.000000e+00 2.491136e-01
2.650000e-02 0.000000e+00 2.441314e-01
2.650000e-02 0.000000e+00 2.391491e-01
2.650000e-02 0.000000e+00 2.341668e-01
2.650000e-02 0.000000e+00 2.291845e-01
2.650000e-02 0.000000e+00 2.242023e-01
2.650000e-02 0.000000e+00 2.192200e-01
2.650000e-02 0.000000e+00 2.142377e-01
2.650000e-02 0.000000e+00 2.092555e-01
2.650000e-02 0.000000e+00 2.042732e-01
2.650000e-02 0.000000e+00 1.992909e-01
2.650000e-02 0.000000e+00 1.943086e-01
2.650000e-02 0.000000e+00 1.893264e-01
2.650000e-02 0.000000e+00 1.843441e-01
2.650000e-02 0.000000e+00 1.793618e-01
2.650000e-02 0.000000e+00 1.743795e-01
2.650000e-02 0.000000e+00 1.693973e-01
2.650000e-02 0.000000e+00 1.644150e-01
2.650000e-02 0.000000e+00 1.594327e-01
2.650000e-02 0.000000e+00 1.544505e-01
2.650000e-02 0.000000e+00 1.494682e-01
2.650000e-02 0.000000e+00 1.444859e-01
2.650000e-02 0.000000e+00 1.395036e-01
2.650000e-02 0.000000e+00 1.345214e-01
2.650000e-02 0.000000e+00 1.295391e-01
2.650000e-02 0.000000e+00 1.245568e-01
2.650000e-02 0.000000e+00 1.195745e-01
2.650000e-02 0.000000e+00 1.145923e-01
2.650000e-02 0.000000e+00 1.096100e-01
2.650000e-02 0.000000e+00 1.046277e-01
2.650000e-02 0.000000e+00 9.964545e-02
2.650000e-02 0.000000e+00 9.466318e-02
2.650000e-02 0.000000e+00 8.968091e-02
2.650000e-02 0.000000e+00 8.469864e-02
2.650000e-02 0.000000e+00 7.971636e-02
2.650000e-02 0.000000e+00 7.473409e-02
2.650000e-02 0.000000e+00 6.975182e-02
2.650000e-02 0.000000e+00 6.476955e-02
2.650000e-02 0.000000e+00 5.978727e-02
2.650000e-02 0.000000e+00 5.480500e-02
2.650000e-02 0.000000e+00 4.982273e-02
2.650000e-02 0.000000e+00 4.484045e-02
2.650000e-02 0.000000e+00 3.985818e-02
2.650000e-02 0.000000e+00 3.487591e-02
2.650000e-02 0.000000e+00 2.989364e-02
2.650000e-02 0.000000e+00 2.491136e-02
2.650000e-02 0.000000e+00 1.992909e-02
2.650000e-02 0.000000e+00 1.494682e-02
2.650000e-02 0.000000e+00 9.964545e-03
2.650000e-02 0.000000e+00 4.982273e-03
2.500000e-02 0.000000e+00 4.954955e-03
2.500000e-02 0.000000e+00 9.909910e-03
2.500000e-02 0.000000e+00 1.486486e-02
2.500000e-02 0.000000e+00 1.981982e-02
2.500000e-02 0.000000e+00 2.477477e-02
2.500000e-02 0.000000e+00 2.972973e-02
2.500000e-02 0.000000e+00 3.468468e-02
2.500000e-02 0.000000e+00 3.963964e-02
2.500000e-02 0.000000e+00 4.459459e-02
2.500000e-02 0.000000e+00 4.954955e-02
2.500000e-02 0.000000e+00 5.450450e-02
2.500000e-02 0.000000e+00 5.945946e-02
2.500000e-02 0.000000e+00 6.441441e-02
2.500000e-02 0.000000e+00 6.936937e-02
2.500000e-02 0.000000e+00 7.432432e-02
2.500000e-02 0.000000e+00 7.927928e-02
2.500000e-02 0.000000e+00 8.423423e-02
2.500000e-02 0.000000e+00 8.918919e-02
2.500000e-02 0.000000e+00 9.414414e-02
2.500000e-02 0.000000e+00 9.909910e-02
2.500000e-02 0.000000e+00 1.040541e-01
2.500000e-02 0.000000e+00 1.090090e-01
2.500000e-02 0.000000e+00 1.139640e-01
2.500000e-02 0.000000e+00 1.189189e-01
2.500000e-02 0.000000e+00 1.238739e-01
2.500000e-02 0.000000e+00 1.288288e-01
2.500000e-02 0.000000e+00 1.337838e-01
2.500000e-02 0.000000e+00 1.387387e-01
2.500000e-02 0.000000e+00 1.436937e-01
2.500000e-02 0.000000e+00 1.486486e-01
2.500000e-02 0.000000e+00 1.536036e-01
2.500000e-02 0.000000e+00 1.585586e-01
2.500000e-02 0.000000e+00 1.635135e-01
2.500000e-02 0.000000e+00 1.684685e-01
2.500000e-02 0.000000e+00 1.734234e-01
2.500000e-02 0.000000e+00 1.783784e-01
2.500000e-02 0.000000e+00 1.833333e-01
2.500000e-02 0.000000e+00 1.882883e-01
2.500000e-02 0.000000e+00 1.932432e-01
2.500000e-02 0.000000e+00 1.981982e-01
2.500000e-02 0.000000e+00 2.031532e-01
2.500000e-02 0.000000e+00 2.081081e-01
2.500000e-02 0.000000e+00 2.130631e-01
2.500000e-02 0.000000e+00 2.180180e-01
2.500000e-02 0.000000e+00 2.229730e-01
2.500000e-02 0.000000e+00 2.279279e-01
2.500000e-02 0.000000e+00 2.328829e-01
2.500000e-02 0.000000e+00 2.378378e-01
2.500000e-02 0.000000e+00 2.427928e-01
2.500000e-02 0.000000e+00 2.477477e-01
2.500000e-02 0.000000e+00 2.527027e-01
2.500000e-02 0.000000e+00 2.576577e-01
2.500000e-02 0.000000e+00 2.626126e-01
2.500000e-02 0.000000e+00 2.675676e-01
2.500000e-02 0.000000e+00 2.725225e-01
2.500000e-02 0.000000e+00 2.774775e-01
2.500000e-02 0.000000e+00 2.824324e-01
2.500000e-02 0.000000e+00 2.873874e-01
2.500000e-02 0.000000e+00 2.923423e-01
2.500000e-02 0.000000e+00 2.972973e-01
2.500000e-02 0.000000e+00 3.022523e-01
2.500000e-02 0.000000e+00 3.072072e-01
2.500000e-02 0.000000e+00 3.121622e-01
2.500000e-02 0.000000e+00 3.171171e-01
2.500000e-02 0.000000e+00 3.220721e-01
2.500000e-02 0.000000e+00 3.270270e-01
2.500000e-02 0.000000e+00 3.319820e-01
2.500000e-02 0.000000e+00 3.369369e-01
2.500000e-02 0.000000e+00 3.418919e-01
2.500000e-02 0.000000e+00 3.468468e-01
2.500000e-02 0.000000e+00 3.518018e-01
2.500000e-02 0.000000e+00 3.567568e-01
2.500000e-02 0.000000e+00 3.617117e-01
2.500000e-02 0.000000e+00 3.666667e-01
2.500000e-02 0.000000e+00 3.716216e-01
2.500000e-02 0.000000e+00 3.765766e-01
2.500000e-02 0.000000e+00 3.815315e-01
2.500000e-02 0.000000e+00 3.864865e-01
2.500000e-02 0.000000e+00 3.914414e-01
2.500000e-02 0.000000e+00 3.963964e-01
2.500000e-02 0.000000e+00 4.013514e-01
2.500000e-02 0.000000e+00 4.063063e-01
2.500000e-02 0.000000e+00 4.112613e-01
2.500000e-02 0.000000e+00 4.162162e-01
2.500000e-02 0.000000e+00 4.211712e-01
2.500000e-02 0.000000e+00 4.261261e-01
2.500000e-02 0.000000e+00 4.310811e-01
2.500000e-02 0.000000e+00 4.360360e-01
2.500000e-02 0.000000e+00 4.409910e-01
2.500000e-02 0.000000e+00 4.459459e-01
2.500000e-02 0.000000e+00 4.509009e-01
2.500000e-02 0.000000e+00 4.558559e-01
2.500000e-02 0.000000e+00 4.608108e-01
2.500000e-02 0.000000e+00 4.657658e-01
2.500000e-02 0.000000e+00 4.707207e-01
2.500000e-02 0.000000e+00 4.756757e-01
2.500000e-02 0.000000e+00 4.806306e-01
2.500000e-02 0.000000e+00 4.855856e-01
2.500000e-02 0.000000e+00 4.905405e-01
2.500000e-02 0.000000e+00 4.954955e-01
2.500000e-02 0.000000e+00 5.004505e-01
2.500000e-02 0.000000e+00 5.054054e-01
2.500000e-02 0.000000e+00 5.103604e-01
2.500000e-02 0.000000e+00 5.153153e-01
2.500000e-02 0.000000e+00 5.202703e-01
2.500000e-02 0.000000e+00 5.252252e-01
2.500000e-02 0.000000e+00 5.301802e-01
2.500000e-02 0.000000e+00 5.351351e-01
2.500000e-02 0.000000e+00 5.400901e-01
2.500000e-02 0.000000e+00 5.450450e-01
2.083333e-02 0.000000e+00 5.500000e-01
1.666667e-02 0.000000e+00 5.500000e-01
1.250000e-02 0.000000e+00 5.500000e-01
8.333333e-03 0.000000e+00 5.500000e-01
4.166667e-03 0.000000e+00 5.500000e-01
2.577384e-02 -9.104088e-17 2.488320e-03
[...]
POINT_DATA 4730
VECTORS Vec_0x84000000_1 double
0.000000e+00 0.000000e+00 3.536221e-03
5.693408e-05 0.000000e+00 -5.917931e-05
-7.409056e-05 0.000000e+00 -5.941603e-05
-8.103084e-05 0.000000e+00 4.395435e-04
1.088703e-04 0.000000e+00 0.000000e+00
1.117697e-04 0.000000e+00 0.000000e+00
-2.494705e-05 0.000000e+00 4.977326e-04
0.000000e+00 0.000000e+00 3.538893e-03
4.116184e-05 0.000000e+00 3.489655e-03
8.072511e-05 0.000000e+00 3.352374e-03
1.168578e-04 0.000000e+00 3.130130e-03
1.475628e-04 0.000000e+00 2.833467e-03
1.715875e-04 0.000000e+00 2.477770e-03
1.863614e-04 0.000000e+00 2.081204e-03
1.915562e-04 0.000000e+00 1.667370e-03
1.827386e-04 0.000000e+00 1.264799e-03
1.616354e-04 0.000000e+00 9.048919e-04
1.232310e-04 0.000000e+00 6.220441e-04
8.082669e-05 0.000000e+00 4.571830e-04
6.617607e-05 0.000000e+00 3.623044e-04
6.358886e-05 0.000000e+00 2.729210e-04
6.139299e-05 0.000000e+00 1.861957e-04
5.956662e-05 0.000000e+00 1.022710e-04
5.808898e-05 0.000000e+00 2.065076e-05
-8.577352e-06 0.000000e+00 -5.882545e-05
-7.637369e-05 0.000000e+00 5.561464e-05
-7.954445e-05 0.000000e+00 1.748182e-04
-8.354925e-05 0.000000e+00 2.999762e-04
-2.752887e-05 0.000000e+00 4.610720e-04
7.493786e-05 0.000000e+00 4.459297e-04
1.090261e-04 0.000000e+00 4.323117e-04
1.099880e-04 0.000000e+00 4.265373e-04
1.079026e-04 0.000000e+00 4.226078e-04
1.062794e-04 0.000000e+00 4.187010e-04
1.071847e-04 0.000000e+00 4.149073e-04
1.088936e-04 0.000000e+00 4.108699e-04
1.091145e-04 0.000000e+00 4.065796e-04
1.100579e-04 0.000000e+00 4.028694e-04
1.126004e-04 0.000000e+00 3.985949e-04
1.130429e-04 0.000000e+00 3.942889e-04
1.123628e-04 0.000000e+00 3.899680e-04
1.110465e-04 0.000000e+00 3.858156e-04
1.089301e-04 0.000000e+00 3.817786e-04
1.078259e-04 0.000000e+00 3.780252e-04
1.083906e-04 0.000000e+00 3.742642e-04
1.082303e-04 0.000000e+00 3.699795e-04
1.073583e-04 0.000000e+00 3.660770e-04
1.074917e-04 0.000000e+00 3.622212e-04
1.075815e-04 0.000000e+00 3.581797e-04
1.071322e-04 0.000000e+00 3.540539e-04
1.059997e-04 0.000000e+00 3.502246e-04
1.069636e-04 0.000000e+00 3.464304e-04
1.076865e-04 0.000000e+00 3.422776e-04
1.077219e-04 0.000000e+00 3.382755e-04
1.080939e-04 0.000000e+00 3.343722e-04
1.084168e-04 0.000000e+00 3.302287e-04
1.089380e-04 0.000000e+00 3.261815e-04
1.081325e-04 0.000000e+00 3.219842e-04
1.067814e-04 0.000000e+00 3.178758e-04
1.062814e-04 0.000000e+00 3.143115e-04
1.085459e-04 0.000000e+00 3.105039e-04
1.103976e-04 0.000000e+00 3.059165e-04
1.087145e-04 0.000000e+00 3.014454e-04
1.066606e-04 0.000000e+00 2.977073e-04
1.062172e-04 0.000000e+00 2.935773e-04
1.047539e-04 0.000000e+00 2.895978e-04
1.050581e-04 0.000000e+00 2.858541e-04
1.054562e-04 0.000000e+00 2.817605e-04
1.052791e-04 0.000000e+00 2.777321e-04
1.058420e-04 0.000000e+00 2.737878e-04
1.063288e-04 0.000000e+00 2.696150e-04
1.060306e-04 0.000000e+00 2.654232e-04
1.047946e-04 0.000000e+00 2.611987e-04
1.035783e-04 0.000000e+00 2.572484e-04
1.019297e-04 0.000000e+00 2.531983e-04
1.014091e-04 0.000000e+00 2.494875e-04
1.024677e-04 0.000000e+00 2.458809e-04
1.044068e-04 0.000000e+00 2.416213e-04
1.042066e-04 0.000000e+00 2.372112e-04
1.028900e-04 0.000000e+00 2.331041e-04
1.018532e-04 0.000000e+00 2.292820e-04
1.024635e-04 0.000000e+00 2.255692e-04
1.037867e-04 0.000000e+00 2.215380e-04
1.052615e-04 0.000000e+00 2.174752e-04
1.056474e-04 0.000000e+00 2.133398e-04
1.063513e-04 0.000000e+00 2.093335e-04
1.070374e-04 0.000000e+00 2.050398e-04
1.056842e-04 0.000000e+00 2.006124e-04
1.038866e-04 0.000000e+00 1.968241e-04
1.032251e-04 0.000000e+00 1.928849e-04
1.029639e-04 0.000000e+00 1.892135e-04
1.045579e-04 0.000000e+00 1.853313e-04
1.057660e-04 0.000000e+00 1.811335e-04
1.071364e-04 0.000000e+00 1.772338e-04
1.087534e-04 0.000000e+00 1.729366e-04
1.094932e-04 0.000000e+00 1.689192e-04
1.090173e-04 0.000000e+00 1.645225e-04
1.081517e-04 0.000000e+00 1.605048e-04
1.080655e-04 0.000000e+00 1.566217e-04
1.085920e-04 0.000000e+00 1.526507e-04
1.087979e-04 0.000000e+00 1.484903e-04
1.076970e-04 0.000000e+00 1.442608e-04
1.064195e-04 0.000000e+00 1.404207e-04
1.058952e-04 0.000000e+00 1.366473e-04
1.070403e-04 0.000000e+00 1.328959e-04
1.085820e-04 0.000000e+00 1.287937e-04
1.089180e-04 0.000000e+00 1.244877e-04
1.085350e-04 0.000000e+00 1.204985e-04
1.086464e-04 0.000000e+00 1.166023e-04
1.088856e-04 0.000000e+00 1.125917e-04
1.098334e-04 0.000000e+00 1.087131e-04
1.111369e-04 0.000000e+00 1.045164e-04
1.108038e-04 0.000000e+00 1.002933e-04
1.109578e-04 0.000000e+00 9.652872e-05
1.117398e-04 0.000000e+00 9.221313e-05
1.111713e-04 0.000000e+00 8.809736e-05
1.109903e-04 0.000000e+00 8.424405e-05
1.105979e-04 0.000000e+00 7.982046e-05
1.097636e-04 0.000000e+00 7.597765e-05
1.092034e-04 0.000000e+00 7.192168e-05
1.090224e-04 0.000000e+00 6.801433e-05
1.085799e-04 0.000000e+00 6.386444e-05
1.076210e-04 0.000000e+00 5.977490e-05
1.068500e-04 0.000000e+00 5.592436e-05
1.061469e-04 0.000000e+00 5.188044e-05
1.061460e-04 0.000000e+00 4.814086e-05
1.065730e-04 0.000000e+00 4.416361e-05
1.065982e-04 0.000000e+00 4.031782e-05
1.077447e-04 0.000000e+00 3.641736e-05
1.086376e-04 0.000000e+00 3.210268e-05
1.088361e-04 0.000000e+00 2.839913e-05
1.101768e-04 0.000000e+00 2.412323e-05
1.100515e-04 0.000000e+00 2.008006e-05
1.094962e-04 0.000000e+00 1.580257e-05
1.092108e-04 0.000000e+00 1.213646e-05
1.106599e-04 0.000000e+00 8.168442e-06
1.099416e-04 0.000000e+00 3.772169e-06
1.128435e-04 0.000000e+00 4.234746e-06
1.136751e-04 0.000000e+00 7.756708e-06
1.121944e-04 0.000000e+00 1.188631e-05
1.124616e-04 0.000000e+00 1.612583e-05
1.130767e-04 0.000000e+00 1.984843e-05
1.132137e-04 0.000000e+00 2.392239e-05
1.118974e-04 0.000000e+00 2.774866e-05
1.116156e-04 0.000000e+00 3.204023e-05
1.107750e-04 0.000000e+00 3.579277e-05
1.095860e-04 0.000000e+00 3.978017e-05
1.094949e-04 0.000000e+00 4.400734e-05
1.091138e-04 0.000000e+00 4.769234e-05
1.090348e-04 0.000000e+00 5.183935e-05
1.097503e-04 0.000000e+00 5.578758e-05
1.104914e-04 0.000000e+00 5.977841e-05
1.115078e-04 0.000000e+00 6.376658e-05
1.120050e-04 0.000000e+00 6.762392e-05
1.120921e-04 0.000000e+00 7.174175e-05
1.127225e-04 0.000000e+00 7.566189e-05
1.134323e-04 0.000000e+00 7.985255e-05
1.140161e-04 0.000000e+00 8.365445e-05
1.140468e-04 0.000000e+00 8.781231e-05
1.147002e-04 0.000000e+00 9.179217e-05
1.140734e-04 0.000000e+00 9.571843e-05
1.137092e-04 0.000000e+00 9.992127e-05
1.142075e-04 0.000000e+00 1.038577e-04
1.130463e-04 0.000000e+00 1.076020e-04
1.119164e-04 0.000000e+00 1.118734e-04
1.115861e-04 0.000000e+00 1.159063e-04
1.114399e-04 0.000000e+00 1.198621e-04
1.117809e-04 0.000000e+00 1.239494e-04
1.117178e-04 0.000000e+00 1.277763e-04
1.102824e-04 0.000000e+00 1.316082e-04
1.089244e-04 0.000000e+00 1.357216e-04
1.091366e-04 0.000000e+00 1.399613e-04
1.102839e-04 0.000000e+00 1.440866e-04
1.116298e-04 0.000000e+00 1.477821e-04
1.116323e-04 0.000000e+00 1.516605e-04
1.111272e-04 0.000000e+00 1.556135e-04
1.110052e-04 0.000000e+00 1.597800e-04
1.117718e-04 0.000000e+00 1.639163e-04
1.125184e-04 0.000000e+00 1.679458e-04
1.119341e-04 0.000000e+00 1.717222e-04
1.105701e-04 0.000000e+00 1.757225e-04
1.089782e-04 0.000000e+00 1.797943e-04
1.079372e-04 0.000000e+00 1.838861e-04
1.062251e-04 0.000000e+00 1.877754e-04
1.058962e-04 0.000000e+00 1.921608e-04
1.066529e-04 0.000000e+00 1.959958e-04
1.080734e-04 0.000000e+00 2.002158e-04
1.099555e-04 0.000000e+00 2.040183e-04
1.096441e-04 0.000000e+00 2.078509e-04
1.087580e-04 0.000000e+00 2.120102e-04
1.084240e-04 0.000000e+00 2.161600e-04
1.073099e-04 0.000000e+00 2.198105e-04
1.057938e-04 0.000000e+00 2.240099e-04
1.047462e-04 0.000000e+00 2.280080e-04
1.053246e-04 0.000000e+00 2.322013e-04
1.066993e-04 0.000000e+00 2.363000e-04
1.076091e-04 0.000000e+00 2.400948e-04
1.063409e-04 0.000000e+00 2.438508e-04
1.044187e-04 0.000000e+00 2.480668e-04
1.045167e-04 0.000000e+00 2.521457e-04
1.059612e-04 0.000000e+00 2.562975e-04
1.071827e-04 0.000000e+00 2.602353e-04
1.086718e-04 0.000000e+00 2.642318e-04
1.093154e-04 0.000000e+00 2.681289e-04
1.091048e-04 0.000000e+00 2.720685e-04
1.083723e-04 0.000000e+00 2.760978e-04
1.082809e-04 0.000000e+00 2.802092e-04
1.082532e-04 0.000000e+00 2.841870e-04
1.075956e-04 0.000000e+00 2.881040e-04
1.085569e-04 0.000000e+00 2.923870e-04
1.094668e-04 0.000000e+00 2.962352e-04
1.105561e-04 0.000000e+00 3.006044e-04
1.130635e-04 0.000000e+00 3.044891e-04
1.127603e-04 0.000000e+00 3.079201e-04
1.099189e-04 0.000000e+00 3.121223e-04
1.091655e-04 0.000000e+00 3.165225e-04
1.105119e-04 0.000000e+00 3.205692e-04
1.116510e-04 0.000000e+00 3.245629e-04
1.116143e-04 0.000000e+00 3.282710e-04
1.112992e-04 0.000000e+00 3.323760e-04
1.107495e-04 0.000000e+00 3.364105e-04
1.107513e-04 0.000000e+00 3.403801e-04
1.103722e-04 0.000000e+00 3.442231e-04
1.092033e-04 0.000000e+00 3.481982e-04
1.094147e-04 0.000000e+00 3.524987e-04
1.104372e-04 0.000000e+00 3.563288e-04
1.105532e-04 0.000000e+00 3.601883e-04
1.103164e-04 0.000000e+00 3.641065e-04
1.106679e-04 0.000000e+00 3.682644e-04
1.115231e-04 0.000000e+00 3.721221e-04
1.108530e-04 0.000000e+00 3.759863e-04
1.111309e-04 0.000000e+00 3.801125e-04
1.129405e-04 0.000000e+00 3.843214e-04
1.147367e-04 0.000000e+00 3.881565e-04
1.157453e-04 0.000000e+00 3.921256e-04
1.159187e-04 0.000000e+00 3.961493e-04
1.145709e-04 0.000000e+00 3.997603e-04
1.122725e-04 0.000000e+00 4.041780e-04
1.121472e-04 0.000000e+00 4.084197e-04
1.110740e-04 0.000000e+00 4.121505e-04
1.095407e-04 0.000000e+00 4.162613e-04
1.097775e-04 0.000000e+00 4.208047e-04
1.116284e-04 0.000000e+00 4.248774e-04
1.140532e-04 0.000000e+00 4.284709e-04
1.050713e-04 0.000000e+00 4.279806e-04
4.280406e-05 0.000000e+00 4.230744e-04
-7.388846e-05 0.000000e+00 4.365120e-04
-1.103181e-04 0.000000e+00 9.563667e-04
-1.474366e-04 0.000000e+00 1.635964e-03
-1.441887e-04 0.000000e+00 2.359859e-03
-1.123077e-04 0.000000e+00 2.980346e-03
-6.083091e-05 0.000000e+00 3.394398e-03
1.105516e-04 0.000000e+00 2.011319e-06
1.119945e-04 0.000000e+00 5.967453e-06
1.107745e-04 0.000000e+00 1.035511e-05
1.101934e-04 0.000000e+00 1.416967e-05
1.110662e-04 0.000000e+00 1.799066e-05
1.112058e-04 0.000000e+00 2.240380e-05
1.106441e-04 0.000000e+00 2.642988e-05
1.094739e-04 0.000000e+00 3.037730e-05
1.093547e-04 0.000000e+00 3.445332e-05
1.078607e-04 0.000000e+00 3.827208e-05
1.070941e-04 0.000000e+00 4.214743e-05
1.071619e-04 0.000000e+00 4.613948e-05
1.066730e-04 0.000000e+00 5.003206e-05
1.072926e-04 0.000000e+00 5.394747e-05
1.079057e-04 0.000000e+00 5.790063e-05
1.089162e-04 0.000000e+00 6.190744e-05
1.096531e-04 0.000000e+00 6.593445e-05
1.110495e-04 0.000000e+00 6.965506e-05
1.123973e-04 0.000000e+00 7.372352e-05
1.113761e-04 0.000000e+00 7.467367e-05
1.101132e-04 0.000000e+00 7.019171e-05
1.105419e-04 0.000000e+00 6.544419e-05
1.097309e-04 0.000000e+00 6.146384e-05
1.087236e-04 0.000000e+00 5.745282e-05
1.081239e-04 0.000000e+00 5.349456e-05
1.076022e-04 0.000000e+00 4.950563e-05
1.080994e-04 0.000000e+00 4.561962e-05
1.080128e-04 0.000000e+00 4.165216e-05
1.089034e-04 0.000000e+00 3.768328e-05
1.102227e-04 0.000000e+00 3.358855e-05
1.101979e-04 0.000000e+00 2.959579e-05
1.369763e-05 0.000000e+00 2.680802e-03
7.938538e-06 0.000000e+00 3.240747e-03
1.115838e-04 0.000000e+00 2.556464e-05
1.117831e-04 0.000000e+00 2.156012e-05
-3.219814e-06 0.000000e+00 4.091939e-04
1.116181e-04 0.000000e+00 1.734282e-05
1.107860e-04 0.000000e+00 1.354453e-05
1.116500e-04 0.000000e+00 9.530052e-06
1.116470e-04 0.000000e+00 4.652191e-06
1.103046e-04 0.000000e+00 6.790158e-07
1.110940e-04 0.000000e+00 3.307829e-06
1.121745e-04 0.000000e+00 7.315580e-06
1.106634e-04 0.000000e+00 1.147552e-05
1.106430e-04 0.000000e+00 1.535049e-05
1.114582e-04 0.000000e+00 1.930506e-05
1.115173e-04 0.000000e+00 2.348651e-05
-7.954983e-06 0.000000e+00 2.320471e-04
1.104547e-04 0.000000e+00 2.753297e-05
1.098502e-04 0.000000e+00 3.148537e-05
1.093046e-04 0.000000e+00 3.556215e-05
1.080098e-04 0.000000e+00 3.919526e-05
1.077248e-04 0.000000e+00 4.298052e-05
1.076381e-04 0.000000e+00 4.689391e-05
1.072818e-04 0.000000e+00 5.081885e-05
1.080047e-04 0.000000e+00 5.478844e-05
1.086478e-04 0.000000e+00 5.872236e-05
1.096782e-04 0.000000e+00 6.274783e-05
-2.070298e-05 0.000000e+00 6.984856e-06
1.103129e-04 0.000000e+00 6.674852e-05
1.104929e-04 0.000000e+00 6.885262e-05
1.107897e-04 0.000000e+00 7.269641e-05
1.107125e-04 0.000000e+00 7.379643e-05
-6.222464e-06 0.000000e+00 1.443023e-04
2.987616e-05 0.000000e+00 7.160821e-04
-3.148279e-06 0.000000e+00 3.230436e-04
1.121647e-04 0.000000e+00 7.469785e-05
1.950200e-05 0.000000e+00 1.941535e-03
3.729462e-06 0.000000e+00 3.530807e-03
4.059334e-06 0.000000e+00 3.491759e-03
2.817607e-06 0.000000e+00 6.584403e-05
-4.490868e-05 0.000000e+00 3.668684e-04
0.000000e+00 5.690364e-05 -5.850620e-05
0.000000e+00 -7.393647e-05 -5.872602e-05
0.000000e+00 -8.132974e-05 4.389377e-04
0.000000e+00 1.092877e-04 0.000000e+00
0.000000e+00 1.121983e-04 0.000000e+00
0.000000e+00 -2.575307e-05 4.977083e-04
0.000000e+00 4.129280e-05 3.489550e-03
0.000000e+00 8.072558e-05 3.352021e-03
0.000000e+00 1.168111e-04 3.129823e-03
0.000000e+00 1.476950e-04 2.833234e-03
0.000000e+00 1.713433e-04 2.477579e-03
0.000000e+00 1.862585e-04 2.081819e-03
0.000000e+00 1.918215e-04 1.667156e-03
0.000000e+00 1.827103e-04 1.264396e-03
0.000000e+00 1.616919e-04 9.046686e-04
0.000000e+00 1.233113e-04 6.219557e-04
0.000000e+00 8.109500e-05 4.569939e-04
0.000000e+00 6.582132e-05 3.623276e-04
0.000000e+00 6.352091e-05 2.731379e-04
0.000000e+00 6.135701e-05 1.865285e-04
0.000000e+00 5.952779e-05 1.027292e-04
0.000000e+00 5.804674e-05 2.122227e-05
0.000000e+00 -8.530739e-06 -5.814092e-05
0.000000e+00 -7.623287e-05 5.613732e-05
0.000000e+00 -7.940770e-05 1.751872e-04
0.000000e+00 -8.373912e-05 3.001032e-04
0.000000e+00 -2.819795e-05 4.609380e-04
0.000000e+00 7.446726e-05 4.458164e-04
0.000000e+00 1.086074e-04 4.321401e-04
0.000000e+00 1.094199e-04 4.263230e-04
0.000000e+00 1.076282e-04 4.225021e-04
0.000000e+00 1.066309e-04 4.184573e-04
0.000000e+00 1.069683e-04 4.145353e-04
0.000000e+00 1.072709e-04 4.104272e-04
0.000000e+00 1.075177e-04 4.063249e-04
0.000000e+00 1.081618e-04 4.024020e-04
0.000000e+00 1.099320e-04 3.982002e-04
0.000000e+00 1.102003e-04 3.939397e-04
0.000000e+00 1.096618e-04 3.896605e-04
0.000000e+00 1.084761e-04 3.854711e-04
0.000000e+00 1.069245e-04 3.814252e-04
0.000000e+00 1.058612e-04 3.774389e-04
0.000000e+00 1.056739e-04 3.734819e-04
0.000000e+00 1.047112e-04 3.693077e-04
0.000000e+00 1.033475e-04 3.654116e-04
0.000000e+00 1.034274e-04 3.614088e-04
0.000000e+00 1.028132e-04 3.571824e-04
0.000000e+00 1.016165e-04 3.531219e-04
0.000000e+00 1.002942e-04 3.491364e-04
0.000000e+00 9.937377e-05 3.451653e-04
0.000000e+00 9.865093e-05 3.412647e-04
0.000000e+00 9.865511e-05 3.373197e-04
0.000000e+00 9.931626e-05 3.334164e-04
0.000000e+00 9.882825e-05 3.290628e-04
0.000000e+00 9.751455e-05 3.249021e-04
0.000000e+00 9.642688e-05 3.211598e-04
0.000000e+00 9.613740e-05 3.170617e-04
0.000000e+00 9.510423e-05 3.129937e-04
0.000000e+00 9.485021e-05 3.090861e-04
0.000000e+00 9.341550e-05 3.046079e-04
0.000000e+00 9.098471e-05 3.008340e-04
0.000000e+00 9.022638e-05 2.969140e-04
0.000000e+00 8.918928e-05 2.929024e-04
0.000000e+00 8.812325e-05 2.889969e-04
0.000000e+00 8.734711e-05 2.850887e-04
0.000000e+00 8.780254e-05 2.812559e-04
0.000000e+00 8.740682e-05 2.769518e-04
0.000000e+00 8.738496e-05 2.732436e-04
0.000000e+00 8.712931e-05 2.686520e-04
0.000000e+00 8.467580e-05 2.644833e-04
0.000000e+00 8.308680e-05 2.607849e-04
0.000000e+00 8.353008e-05 2.571695e-04
0.000000e+00 8.392747e-05 2.528753e-04
0.000000e+00 8.276158e-05 2.486577e-04
0.000000e+00 8.127542e-05 2.448299e-04
0.000000e+00 8.040355e-05 2.408810e-04
0.000000e+00 7.967798e-05 2.371441e-04
0.000000e+00 7.996414e-05 2.332104e-04
0.000000e+00 8.095504e-05 2.294539e-04
0.000000e+00 8.276792e-05 2.254549e-04
0.000000e+00 8.311566e-05 2.210280e-04
0.000000e+00 8.214903e-05 2.169566e-04
0.000000e+00 8.021385e-05 2.127046e-04
0.000000e+00 7.838518e-05 2.090081e-04
0.000000e+00 7.820673e-05 2.054371e-04
0.000000e+00 7.980970e-05 2.019379e-04
0.000000e+00 8.229294e-05 1.977304e-04
0.000000e+00 8.390326e-05 1.937684e-04
0.000000e+00 8.562277e-05 1.894915e-04
0.000000e+00 8.485973e-05 1.850167e-04
0.000000e+00 8.343269e-05 1.812255e-04
0.000000e+00 8.412994e-05 1.775948e-04
0.000000e+00 8.603861e-05 1.736649e-04
0.000000e+00 8.650990e-05 1.694046e-04
0.000000e+00 8.731273e-05 1.656067e-04
0.000000e+00 8.900555e-05 1.615961e-04
0.000000e+00 9.092388e-05 1.575493e-04
0.000000e+00 9.145523e-05 1.530705e-04
0.000000e+00 8.935334e-05 1.488428e-04
0.000000e+00 8.891666e-05 1.452746e-04
0.000000e+00 8.971816e-05 1.414368e-04
0.000000e+00 9.214031e-05 1.377616e-04
0.000000e+00 9.362710e-05 1.331337e-04
0.000000e+00 9.347436e-05 1.292251e-04
0.000000e+00 9.335397e-05 1.249971e-04
0.000000e+00 9.268206e-05 1.210336e-04
0.000000e+00 9.355232e-05 1.174183e-04
0.000000e+00 9.505376e-05 1.135241e-04
0.000000e+00 9.711579e-05 1.095005e-04
0.000000e+00 9.791947e-05 1.050878e-04
0.000000e+00 9.739908e-05 1.010639e-04
0.000000e+00 9.743783e-05 9.704267e-05
0.000000e+00 9.697015e-05 9.315788e-05
0.000000e+00 9.889101e-05 8.943854e-05
0.000000e+00 9.971278e-05 8.517931e-05
0.000000e+00 1.005167e-04 8.105336e-05
0.000000e+00 1.006087e-04 7.700079e-05
0.000000e+00 1.002933e-04 7.283923e-05
0.000000e+00 1.002477e-04 6.918006e-05
0.000000e+00 1.016825e-04 6.511945e-05
0.000000e+00 1.021508e-04 6.089637e-05
0.000000e+00 1.026244e-04 5.702294e-05
0.000000e+00 1.029906e-04 5.284636e-05
0.000000e+00 1.032890e-04 4.893944e-05
0.000000e+00 1.042556e-04 4.498220e-05
0.000000e+00 1.047679e-04 4.097066e-05
0.000000e+00 1.064291e-04 3.716275e-05
0.000000e+00 1.081501e-04 3.281879e-05
0.000000e+00 1.092288e-04 2.899896e-05
0.000000e+00 1.106790e-04 2.442184e-05
0.000000e+00 1.097712e-04 2.038466e-05
0.000000e+00 1.094169e-04 1.612613e-05
0.000000e+00 1.096075e-04 1.236799e-05
0.000000e+00 1.108793e-04 8.232101e-06
0.000000e+00 1.101790e-04 3.887807e-06
0.000000e+00 1.131112e-04 4.222481e-06
0.000000e+00 1.138878e-04 8.059083e-06
0.000000e+00 1.126188e-04 1.198111e-05
0.000000e+00 1.124150e-04 1.630068e-05
0.000000e+00 1.127885e-04 2.027472e-05
0.000000e+00 1.137030e-04 2.442705e-05
0.000000e+00 1.122704e-04 2.816347e-05
0.000000e+00 1.111415e-04 3.250929e-05
0.000000e+00 1.094841e-04 3.625678e-05
0.000000e+00 1.077600e-04 4.044093e-05
0.000000e+00 1.072670e-04 4.450386e-05
0.000000e+00 1.062856e-04 4.844502e-05
0.000000e+00 1.059177e-04 5.258803e-05
0.000000e+00 1.056560e-04 5.644402e-05
0.000000e+00 1.051213e-04 6.054535e-05
0.000000e+00 1.047506e-04 6.448767e-05
0.000000e+00 1.033523e-04 6.840278e-05
0.000000e+00 1.031718e-04 7.263184e-05
0.000000e+00 1.035905e-04 7.652359e-05
0.000000e+00 1.035296e-04 8.058474e-05
0.000000e+00 1.027258e-04 8.459665e-05
0.000000e+00 1.020940e-04 8.838828e-05
0.000000e+00 1.000058e-04 9.242958e-05
0.000000e+00 1.003369e-04 9.669390e-05
0.000000e+00 1.003713e-04 1.005786e-04
0.000000e+00 1.008171e-04 1.046233e-04
0.000000e+00 1.003532e-04 1.084463e-04
0.000000e+00 9.832195e-05 1.122988e-04
0.000000e+00 9.677042e-05 1.163158e-04
0.000000e+00 9.562706e-05 1.203555e-04
0.000000e+00 9.618659e-05 1.245491e-04
0.000000e+00 9.646885e-05 1.284804e-04
0.000000e+00 9.654116e-05 1.324705e-04
0.000000e+00 9.576015e-05 1.360729e-04
0.000000e+00 9.291138e-05 1.402602e-04
0.000000e+00 9.193505e-05 1.443587e-04
0.000000e+00 9.196617e-05 1.484521e-04
0.000000e+00 9.408577e-05 1.526557e-04
0.000000e+00 9.420271e-05 1.562390e-04
0.000000e+00 9.232853e-05 1.601825e-04
0.000000e+00 9.064042e-05 1.641692e-04
0.000000e+00 8.946721e-05 1.684144e-04
0.000000e+00 8.929277e-05 1.724271e-04
0.000000e+00 8.752436e-05 1.761072e-04
0.000000e+00 8.632521e-05 1.802778e-04
0.000000e+00 8.731076e-05 1.845914e-04
0.000000e+00 8.866998e-05 1.884094e-04
0.000000e+00 8.754123e-05 1.919796e-04
0.000000e+00 8.565202e-05 1.962122e-04
0.000000e+00 8.363420e-05 1.999241e-04
0.000000e+00 8.133736e-05 2.041616e-04