# vtk DataFile Version 2.0
Simplicial Mesh Example
ASCII
DATASET UNSTRUCTURED_GRID
POINTS 379 double
-5.000000e-01 0.000000e+00 0.0
5.000000e-01 0.000000e+00 0.0
5.000000e-01 1.000000e-01 0.0
-5.000000e-01 1.000000e-01 0.0
-4.795918e-01 0.000000e+00 0.0
-4.591837e-01 0.000000e+00 0.0
-4.387755e-01 0.000000e+00 0.0
-4.183673e-01 0.000000e+00 0.0
-3.979592e-01 0.000000e+00 0.0
-3.775510e-01 0.000000e+00 0.0
-3.571429e-01 0.000000e+00 0.0
-3.367347e-01 0.000000e+00 0.0
-3.163265e-01 0.000000e+00 0.0
-2.959184e-01 0.000000e+00 0.0
-2.755102e-01 0.000000e+00 0.0
-2.551020e-01 0.000000e+00 0.0
-2.346939e-01 0.000000e+00 0.0
-2.142857e-01 0.000000e+00 0.0
-1.938776e-01 0.000000e+00 0.0
-1.734694e-01 0.000000e+00 0.0
-1.530612e-01 0.000000e+00 0.0
-1.326531e-01 0.000000e+00 0.0
-1.122449e-01 0.000000e+00 0.0
-9.183673e-02 0.000000e+00 0.0
-7.142857e-02 0.000000e+00 0.0
-5.102041e-02 0.000000e+00 0.0
-3.061224e-02 0.000000e+00 0.0
-1.020408e-02 0.000000e+00 0.0
1.020408e-02 0.000000e+00 0.0
3.061224e-02 0.000000e+00 0.0
5.102041e-02 0.000000e+00 0.0
7.142857e-02 0.000000e+00 0.0
9.183673e-02 0.000000e+00 0.0
1.122449e-01 0.000000e+00 0.0
1.326531e-01 0.000000e+00 0.0
1.530612e-01 0.000000e+00 0.0
1.734694e-01 0.000000e+00 0.0
1.938776e-01 0.000000e+00 0.0
2.142857e-01 0.000000e+00 0.0
2.346939e-01 0.000000e+00 0.0
2.551020e-01 0.000000e+00 0.0
2.755102e-01 0.000000e+00 0.0
2.959184e-01 0.000000e+00 0.0
3.163265e-01 0.000000e+00 0.0
3.367347e-01 0.000000e+00 0.0
3.571429e-01 0.000000e+00 0.0
3.775510e-01 0.000000e+00 0.0
3.979592e-01 0.000000e+00 0.0
4.183673e-01 0.000000e+00 0.0
4.387755e-01 0.000000e+00 0.0
4.591837e-01 0.000000e+00 0.0
4.795918e-01 0.000000e+00 0.0
5.000000e-01 1.111111e-02 0.0
5.000000e-01 2.222222e-02 0.0
5.000000e-01 3.333333e-02 0.0
5.000000e-01 4.444444e-02 0.0
5.000000e-01 5.555556e-02 0.0
5.000000e-01 6.666667e-02 0.0
5.000000e-01 7.777778e-02 0.0
5.000000e-01 8.888889e-02 0.0
4.795918e-01 1.000000e-01 0.0
4.591837e-01 1.000000e-01 0.0
4.387755e-01 1.000000e-01 0.0
4.183673e-01 1.000000e-01 0.0
3.979592e-01 1.000000e-01 0.0
3.775510e-01 1.000000e-01 0.0
3.571429e-01 1.000000e-01 0.0
3.367347e-01 1.000000e-01 0.0
3.163265e-01 1.000000e-01 0.0
2.959184e-01 1.000000e-01 0.0
2.755102e-01 1.000000e-01 0.0
2.551020e-01 1.000000e-01 0.0
2.346939e-01 1.000000e-01 0.0
2.142857e-01 1.000000e-01 0.0
1.938776e-01 1.000000e-01 0.0
1.734694e-01 1.000000e-01 0.0
1.530612e-01 1.000000e-01 0.0
1.326531e-01 1.000000e-01 0.0
1.122449e-01 1.000000e-01 0.0
9.183673e-02 1.000000e-01 0.0
7.142857e-02 1.000000e-01 0.0
5.102041e-02 1.000000e-01 0.0
3.061224e-02 1.000000e-01 0.0
1.020408e-02 1.000000e-01 0.0
-1.020408e-02 1.000000e-01 0.0
-3.061224e-02 1.000000e-01 0.0
-5.102041e-02 1.000000e-01 0.0
-7.142857e-02 1.000000e-01 0.0
-9.183673e-02 1.000000e-01 0.0
-1.122449e-01 1.000000e-01 0.0
-1.326531e-01 1.000000e-01 0.0
-1.530612e-01 1.000000e-01 0.0
-1.734694e-01 1.000000e-01 0.0
-1.938776e-01 1.000000e-01 0.0
-2.142857e-01 1.000000e-01 0.0
-2.346939e-01 1.000000e-01 0.0
-2.551020e-01 1.000000e-01 0.0
-2.755102e-01 1.000000e-01 0.0
-2.959184e-01 1.000000e-01 0.0
-3.163265e-01 1.000000e-01 0.0
-3.367347e-01 1.000000e-01 0.0
-3.571429e-01 1.000000e-01 0.0
-3.775510e-01 1.000000e-01 0.0
-3.979592e-01 1.000000e-01 0.0
-4.183673e-01 1.000000e-01 0.0
-4.387755e-01 1.000000e-01 0.0
-4.591837e-01 1.000000e-01 0.0
-4.795918e-01 1.000000e-01 0.0
-5.000000e-01 8.888889e-02 0.0
-5.000000e-01 7.777778e-02 0.0
-5.000000e-01 6.666667e-02 0.0
-5.000000e-01 5.555556e-02 0.0
-5.000000e-01 4.444444e-02 0.0
-5.000000e-01 3.333333e-02 0.0
-5.000000e-01 2.222222e-02 0.0
-5.000000e-01 1.111111e-02 0.0
4.493449e-01 5.000000e-02 0.0
-4.493449e-01 5.000000e-02 0.0
3.880136e-01 4.962932e-02 0.0
-3.880136e-01 5.037068e-02 0.0
-3.267270e-01 5.319893e-02 0.0
3.267270e-01 4.680107e-02 0.0
-2.655467e-01 4.967431e-02 0.0
2.655467e-01 5.032569e-02 0.0
-2.043222e-01 4.967431e-02 0.0
2.043222e-01 5.032569e-02 0.0
1.430977e-01 5.032569e-02 0.0
-1.430977e-01 4.967431e-02 0.0
-8.187322e-02 4.967431e-02 0.0
8.267204e-02 5.065948e-02 0.0
-2.164368e-02 4.933263e-02 0.0
2.960204e-02 5.000000e-02 0.0
-4.715508e-01 2.818680e-02 0.0
4.715508e-01 7.181320e-02 0.0
4.715360e-01 2.819080e-02 0.0
-4.715360e-01 7.180920e-02 0.0
4.762296e-01 5.000515e-02 0.0
-4.762296e-01 4.999485e-02 0.0
-4.180356e-01 3.460531e-02 0.0
4.180356e-01 6.539469e-02 0.0
-5.102041e-02 6.562890e-02 0.0
-1.122449e-01 6.562890e-02 0.0
1.122449e-01 3.437110e-02 0.0
1.734694e-01 3.437110e-02 0.0
-1.734694e-01 6.562890e-02 0.0
2.346939e-01 3.437110e-02 0.0
-2.346939e-01 6.562890e-02 0.0
3.571429e-01 6.562890e-02 0.0
-3.571429e-01 3.437110e-02 0.0
-2.959184e-01 6.562890e-02 0.0
2.959184e-01 3.437110e-02 0.0
-3.578550e-01 6.627666e-02 0.0
3.578550e-01 3.372334e-02 0.0
2.966305e-01 6.627666e-02 0.0
-2.966305e-01 3.372334e-02 0.0
2.354060e-01 6.627666e-02 0.0
-2.354060e-01 3.372334e-02 0.0
-1.741815e-01 3.372334e-02 0.0
1.741815e-01 6.627666e-02 0.0
1.129570e-01 6.627666e-02 0.0
-1.129570e-01 3.372334e-02 0.0
-5.175568e-02 3.371284e-02 0.0
4.193433e-01 3.330203e-02 0.0
-4.193433e-01 6.669797e-02 0.0
5.561735e-02 3.155664e-02 0.0
5.581762e-02 6.876666e-02 0.0
5.087868e-03 6.723488e-02 0.0
5.087868e-03 3.276512e-02 0.0
-4.462058e-01 2.454646e-02 0.0
4.462058e-01 7.545354e-02 0.0
4.462058e-01 2.454646e-02 0.0
-4.462058e-01 7.545354e-02 0.0
8.185885e-02 1.744226e-02 0.0
-8.163265e-02 7.604123e-02 0.0
1.428571e-01 2.395877e-02 0.0
-1.428571e-01 7.604123e-02 0.0
2.040816e-01 2.395877e-02 0.0
-2.040816e-01 7.604123e-02 0.0
2.653061e-01 2.395877e-02 0.0
-2.653061e-01 7.604123e-02 0.0
-3.877397e-01 2.229049e-02 0.0
3.877397e-01 7.770951e-02 0.0
-3.265306e-01 7.604123e-02 0.0
3.265306e-01 2.395877e-02 0.0
-3.270067e-01 1.770059e-02 0.0
3.270067e-01 8.229941e-02 0.0
3.877551e-01 2.395877e-02 0.0
-3.877551e-01 7.604123e-02 0.0
2.653061e-01 7.604123e-02 0.0
-2.653061e-01 2.395877e-02 0.0
-2.040816e-01 2.395877e-02 0.0
2.040816e-01 7.604123e-02 0.0
-1.428571e-01 2.395877e-02 0.0
1.428571e-01 7.604123e-02 0.0
-8.163265e-02 2.395877e-02 0.0
8.186027e-02 8.095500e-02 0.0
-2.133125e-02 1.932044e-02 0.0
-2.125858e-02 8.041451e-02 0.0
-4.852691e-01 1.569026e-02 0.0
4.852691e-01 8.430974e-02 0.0
4.852675e-01 1.569066e-02 0.0
-4.852675e-01 8.430934e-02 0.0
3.144290e-02 2.502699e-02 0.0
3.088244e-02 7.680137e-02 0.0
4.867574e-01 3.888889e-02 0.0
-4.867574e-01 6.111111e-02 0.0
4.867574e-01 6.111111e-02 0.0
-4.867574e-01 3.888889e-02 0.0
-4.095899e-01 5.068522e-02 0.0
4.095899e-01 4.931478e-02 0.0
-4.076578e-01 8.200578e-02 0.0
4.076578e-01 1.799422e-02 0.0
3.466876e-01 4.831309e-02 0.0
-3.466876e-01 5.168691e-02 0.0
-2.866205e-01 4.913191e-02 0.0
2.866205e-01 5.086809e-02 0.0
2.253960e-01 5.086809e-02 0.0
-2.253960e-01 4.913191e-02 0.0
1.641715e-01 5.086809e-02 0.0
-1.641715e-01 4.913191e-02 0.0
-1.029470e-01 4.913191e-02 0.0
1.030421e-01 5.090783e-02 0.0
-4.185806e-02 4.908435e-02 0.0
-3.464447e-01 8.195458e-02 0.0
3.464447e-01 1.804542e-02 0.0
-2.852202e-01 1.804542e-02 0.0
2.852202e-01 8.195458e-02 0.0
-2.239957e-01 1.804542e-02 0.0
2.239957e-01 8.195458e-02 0.0
1.627713e-01 8.195458e-02 0.0
-1.627713e-01 1.804542e-02 0.0
-1.015468e-01 1.804542e-02 0.0
1.032159e-01 8.276777e-02 0.0
-4.212623e-02 1.727155e-02 0.0
-4.084979e-01 1.829914e-02 0.0
4.084979e-01 8.170086e-02 0.0
1.017861e-01 1.775284e-02 0.0
-1.021723e-01 8.155023e-02 0.0
1.633968e-01 1.844977e-02 0.0
-1.633968e-01 8.155023e-02 0.0
2.246213e-01 1.844977e-02 0.0
-2.246213e-01 8.155023e-02 0.0
-2.858458e-01 8.155023e-02 0.0
2.858458e-01 1.844977e-02 0.0
-3.461891e-01 1.786060e-02 0.0
3.461891e-01 8.213940e-02 0.0
3.679089e-01 8.199964e-02 0.0
-3.679089e-01 1.800036e-02 0.0
-3.060946e-01 8.168253e-02 0.0
3.060946e-01 1.831747e-02 0.0
2.448701e-01 1.831747e-02 0.0
-2.448701e-01 8.168253e-02 0.0
1.836457e-01 1.831747e-02 0.0
-1.836457e-01 8.168253e-02 0.0
1.223752e-01 1.823450e-02 0.0
-1.224212e-01 8.168253e-02 0.0
-6.145630e-02 8.183270e-02 0.0
-4.148626e-02 8.203992e-02 0.0
-3.117082e-03 4.988877e-02 0.0
4.277360e-01 8.225314e-02 0.0
-4.277360e-01 1.774686e-02 0.0
6.044542e-02 5.115009e-02 0.0
-4.278051e-01 5.012801e-02 0.0
4.278051e-01 4.987199e-02 0.0
-3.666191e-01 5.022566e-02 0.0
3.666191e-01 4.977434e-02 0.0
3.055772e-01 4.949426e-02 0.0
-2.443601e-01 4.991831e-02 0.0
2.443601e-01 5.008169e-02 0.0
-1.831356e-01 4.991831e-02 0.0
-1.219111e-01 4.991831e-02 0.0
1.219269e-01 5.008831e-02 0.0
-6.071305e-02 4.990863e-02 0.0
1.831356e-01 5.008169e-02 0.0
-3.055772e-01 5.050574e-02 0.0
4.887154e-01 7.233570e-02 0.0
4.899489e-01 5.000103e-02 0.0
-4.887154e-01 2.766430e-02 0.0
-4.899489e-01 4.999897e-02 0.0
4.887122e-01 2.766518e-02 0.0
-4.887122e-01 7.233482e-02 0.0
-6.209327e-02 1.806736e-02 0.0
-1.237337e-01 1.790815e-02 0.0
1.232990e-01 8.193607e-02 0.0
-1.849582e-01 1.790815e-02 0.0
2.461826e-01 8.209185e-02 0.0
-2.461826e-01 1.790815e-02 0.0
1.849582e-01 8.209185e-02 0.0
3.068304e-01 8.258429e-02 0.0
-3.068304e-01 1.741571e-02 0.0
3.686316e-01 1.790815e-02 0.0
-3.686316e-01 8.209185e-02 0.0
4.277622e-01 1.865132e-02 0.0
-4.277622e-01 8.134868e-02 0.0
-4.635022e-01 5.809439e-02 0.0
-4.630338e-01 4.194931e-02 0.0
4.635022e-01 4.190561e-02 0.0
4.630338e-01 5.805069e-02 0.0
6.267174e-02 8.300119e-02 0.0
6.263812e-02 1.678557e-02 0.0
1.559147e-02 1.695358e-02 0.0
1.559147e-02 8.304642e-02 0.0
-4.023754e-01 3.525017e-02 0.0
4.023754e-01 6.474983e-02 0.0
4.701175e-01 1.147562e-02 0.0
-4.701175e-01 8.852438e-02 0.0
4.701208e-01 8.852526e-02 0.0
-4.701208e-01 1.147474e-02 0.0
9.212836e-02 3.459868e-02 0.0
-9.617401e-02 6.440532e-02 0.0
1.573985e-01 3.559468e-02 0.0
-1.573985e-01 6.440532e-02 0.0
-2.186230e-01 6.440532e-02 0.0
2.186230e-01 3.559468e-02 0.0
-2.798475e-01 6.440532e-02 0.0
2.798475e-01 3.559468e-02 0.0
3.373320e-01 6.480231e-02 0.0
-3.373320e-01 3.519769e-02 0.0
-3.130802e-02 6.492349e-02 0.0
-1.872174e-03 1.766642e-02 0.0
-1.860063e-03 8.228941e-02 0.0
3.734848e-01 6.494834e-02 0.0
-3.734848e-01 3.505166e-02 0.0
3.125134e-01 3.430379e-02 0.0
[...]
POINT_DATA 379
VECTORS deformation double
0.000000e+00 0.000000e+00 0.0
0.000000e+00 1.000000e-02 0.0
0.000000e+00 1.000000e-02 0.0
0.000000e+00 0.000000e+00 0.0
6.954685e-05 4.099158e-05 0.0
1.310962e-04 9.992661e-05 0.0
1.866686e-04 1.836984e-04 0.0
2.425992e-04 2.989958e-04 0.0
2.948171e-04 4.372377e-04 0.0
3.407678e-04 5.929287e-04 0.0
3.868366e-04 7.693360e-04 0.0
4.290599e-04 9.634302e-04 0.0
4.681097e-04 1.175177e-03 0.0
5.043191e-04 1.404650e-03 0.0
5.375931e-04 1.649986e-03 0.0
5.660379e-04 1.907291e-03 0.0
5.939683e-04 2.178144e-03 0.0
6.187584e-04 2.461225e-03 0.0
6.394565e-04 2.755915e-03 0.0
6.586890e-04 3.060187e-03 0.0
6.749694e-04 3.372981e-03 0.0
6.880554e-04 3.696108e-03 0.0
6.989092e-04 4.024524e-03 0.0
7.070473e-04 4.357980e-03 0.0
7.127681e-04 4.699926e-03 0.0
7.157208e-04 5.042513e-03 0.0
7.162761e-04 5.387197e-03 0.0
7.149555e-04 5.734380e-03 0.0
7.114121e-04 6.081042e-03 0.0
7.057472e-04 6.429491e-03 0.0
6.960525e-04 6.775054e-03 0.0
6.851341e-04 7.120685e-03 0.0
6.723438e-04 7.462649e-03 0.0
6.577125e-04 7.799629e-03 0.0
6.409062e-04 8.130547e-03 0.0
6.232053e-04 8.456731e-03 0.0
6.021480e-04 8.773621e-03 0.0
5.789978e-04 9.080945e-03 0.0
5.553957e-04 9.379567e-03 0.0
5.282138e-04 9.667486e-03 0.0
4.988706e-04 9.942984e-03 0.0
4.694536e-04 1.020498e-02 0.0
4.362442e-04 1.045524e-02 0.0
4.006428e-04 1.069004e-02 0.0
3.650660e-04 1.090390e-02 0.0
3.253035e-04 1.109921e-02 0.0
2.837939e-04 1.127508e-02 0.0
2.386249e-04 1.137689e-02 0.0
1.908532e-04 1.139493e-02 0.0
1.450468e-04 1.136145e-02 0.0
1.023718e-04 1.105620e-02 0.0
5.120497e-05 1.059974e-02 0.0
0.000000e+00 1.000000e-02 0.0
0.000000e+00 1.000000e-02 0.0
0.000000e+00 1.000000e-02 0.0
0.000000e+00 1.000000e-02 0.0
0.000000e+00 1.000000e-02 0.0
0.000000e+00 1.000000e-02 0.0
0.000000e+00 1.000000e-02 0.0
0.000000e+00 1.000000e-02 0.0
-8.941384e-05 1.061141e-02 0.0
-1.677006e-04 1.106727e-02 0.0
-2.264003e-04 1.135343e-02 0.0
-2.813574e-04 1.140170e-02 0.0
-3.321846e-04 1.137541e-02 0.0
-3.807892e-04 1.126768e-02 0.0
-4.249562e-04 1.109579e-02 0.0
-4.651614e-04 1.090084e-02 0.0
-5.023796e-04 1.068486e-02 0.0
-5.369075e-04 1.044975e-02 0.0
-5.686335e-04 1.019897e-02 0.0
-5.961598e-04 9.936059e-03 0.0
-6.228751e-04 9.659753e-03 0.0
-6.465405e-04 9.371882e-03 0.0
-6.665012e-04 9.072306e-03 0.0
-6.848141e-04 8.763977e-03 0.0
-7.003100e-04 8.447464e-03 0.0
-7.128164e-04 8.120335e-03 0.0
-7.231463e-04 7.789002e-03 0.0
-7.310708e-04 7.451863e-03 0.0
-7.368693e-04 7.108690e-03 0.0
-7.401581e-04 6.765020e-03 0.0
-7.417597e-04 6.417107e-03 0.0
-7.387243e-04 6.069398e-03 0.0
-7.343173e-04 5.722948e-03 0.0
-7.283484e-04 5.375748e-03 0.0
-7.201662e-04 5.030842e-03 0.0
-7.098274e-04 4.688800e-03 0.0
-6.982188e-04 4.347518e-03 0.0
-6.834774e-04 4.013441e-03 0.0
-6.666335e-04 3.686044e-03 0.0
-6.489324e-04 3.363644e-03 0.0
-6.278564e-04 3.050610e-03 0.0
-6.046417e-04 2.747385e-03 0.0
-5.810228e-04 2.453347e-03 0.0
-5.536583e-04 2.170531e-03 0.0
-5.240526e-04 1.900594e-03 0.0
-4.945351e-04 1.643682e-03 0.0
-4.608299e-04 1.399158e-03 0.0
-4.245960e-04 1.170635e-03 0.0
-3.888519e-04 9.600232e-04 0.0
-3.481246e-04 7.655321e-04 0.0
-3.050076e-04 5.900119e-04 0.0
-2.633106e-04 4.346566e-04 0.0
-2.156193e-04 2.973868e-04 0.0
-1.662089e-04 1.817952e-04 0.0
-1.157475e-04 9.905713e-05 0.0
-6.086113e-05 4.033754e-05 0.0
0.000000e+00 0.000000e+00 0.0
0.000000e+00 0.000000e+00 0.0
0.000000e+00 0.000000e+00 0.0
0.000000e+00 0.000000e+00 0.0
0.000000e+00 0.000000e+00 0.0
0.000000e+00 0.000000e+00 0.0
0.000000e+00 0.000000e+00 0.0
0.000000e+00 0.000000e+00 0.0
-2.407554e-05 1.126361e-02 0.0
-3.387289e-06 1.197479e-04 0.0
-1.662891e-05 1.135569e-02 0.0
-1.056309e-05 4.944829e-04 0.0
-3.829624e-05 1.050573e-03 0.0
1.011039e-05 1.081227e-02 0.0
-1.378922e-05 1.760156e-03 0.0
-1.542239e-05 1.008616e-02 0.0
-1.619702e-05 2.591381e-03 0.0
-1.491131e-05 9.239214e-03 0.0
-1.637215e-05 8.299541e-03 0.0
-1.673282e-05 3.519007e-03 0.0
-1.588522e-05 4.515376e-03 0.0
-2.414400e-05 7.307305e-03 0.0
-8.743925e-06 5.533010e-03 0.0
-1.661001e-05 6.407068e-03 0.0
2.989781e-05 4.466641e-05 0.0
-4.984555e-05 1.082352e-02 0.0
1.375466e-05 1.081488e-02 0.0
-3.122369e-05 4.625407e-05 0.0
-1.613893e-05 1.070468e-02 0.0
-1.127551e-06 3.282400e-05 0.0
6.211963e-05 2.864110e-04 0.0
-8.673380e-05 1.141471e-02 0.0
-2.467035e-04 5.032678e-03 0.0
-2.327628e-04 4.012966e-03 0.0
2.037791e-04 7.800097e-03 0.0
1.828351e-04 8.776521e-03 0.0
-2.122850e-04 3.047751e-03 0.0
1.556278e-04 9.672924e-03 0.0
-1.848868e-04 2.165243e-03 0.0
-1.324263e-04 1.110944e-02 0.0
1.052352e-04 7.559239e-04 0.0
-1.513648e-04 1.391642e-03 0.0
1.217757e-04 1.046303e-02 0.0
-1.153391e-04 7.492683e-04 0.0
8.487136e-05 1.111617e-02 0.0
-1.760183e-04 1.047018e-02 0.0
1.469711e-04 1.384447e-03 0.0
-2.094553e-04 9.680010e-03 0.0
1.787208e-04 2.158015e-03 0.0
2.027577e-04 3.040378e-03 0.0
-2.344122e-04 8.783731e-03 0.0
-2.522863e-04 7.807387e-03 0.0
2.191725e-04 4.005546e-03 0.0
2.286702e-04 5.024892e-03 0.0
3.680573e-05 1.141077e-02 0.0
-6.955231e-05 2.788861e-04 0.0
2.576455e-04 6.852420e-03 0.0
-2.975671e-04 6.849657e-03 0.0
-2.764182e-04 5.985893e-03 0.0
2.433420e-04 5.990983e-03 0.0
6.960334e-05 1.364456e-04 0.0
-9.549463e-05 1.129870e-02 0.0
4.297124e-05 1.130243e-02 0.0
-6.956164e-05 1.366340e-04 0.0
4.464451e-04 7.296375e-03 0.0
-3.862621e-04 4.517422e-03 0.0
3.303556e-04 8.296550e-03 0.0
-3.578779e-04 3.521932e-03 0.0
2.905273e-04 9.235317e-03 0.0
-3.188201e-04 2.595306e-03 0.0
2.403978e-04 1.008129e-02 0.0
-2.699499e-04 1.764918e-03 0.0
1.582723e-04 5.016058e-04 0.0
-1.839507e-04 1.134635e-02 0.0
-2.116276e-04 1.055534e-03 0.0
1.801686e-04 1.080724e-02 0.0
2.744531e-04 1.054180e-03 0.0
-3.040919e-04 1.080808e-02 0.0
1.114598e-04 1.134873e-02 0.0
-1.444501e-04 5.005414e-04 0.0
-3.046035e-04 1.007785e-02 0.0
2.740147e-04 1.768089e-03 0.0
3.197958e-04 2.599755e-03 0.0
-3.510650e-04 9.230608e-03 0.0
3.522825e-04 3.527601e-03 0.0
-3.834222e-04 8.290530e-03 0.0
3.716872e-04 4.524024e-03 0.0
-4.703730e-04 7.288048e-03 0.0
4.445680e-04 5.542874e-03 0.0
-4.631517e-04 5.535923e-03 0.0
2.661224e-05 1.788414e-05 0.0
-3.646363e-05 1.045714e-02 0.0
1.347976e-05 1.045128e-02 0.0
-2.593183e-05 1.937722e-05 0.0
3.570459e-04 6.442898e-03 0.0
-4.152304e-04 6.424454e-03 0.0
-4.491584e-06 1.041149e-02 0.0
-7.356734e-06 1.352815e-05 0.0
-1.594715e-05 1.041343e-02 0.0
6.799049e-06 1.289245e-05 0.0
-9.864149e-06 3.400685e-04 0.0
-1.735339e-05 1.141193e-02 0.0
-1.494259e-04 3.585787e-04 0.0
1.184766e-04 1.140313e-02 0.0
-4.219674e-06 1.101314e-02 0.0
-2.371716e-05 8.521197e-04 0.0
-6.763000e-06 1.501079e-03 0.0
-2.200981e-05 1.035079e-02 0.0
-2.130329e-05 9.542380e-03 0.0
-9.163509e-06 2.293294e-03 0.0
-2.294216e-05 8.632006e-03 0.0
-9.508579e-06 3.190418e-03 0.0
-8.545174e-06 4.165977e-03 0.0
-2.671595e-05 7.646820e-03 0.0
-5.768800e-06 5.189483e-03 0.0
-2.336367e-04 8.585337e-04 0.0
2.025424e-04 1.100638e-02 0.0
3.205819e-04 1.523790e-03 0.0
-3.512578e-04 1.032740e-02 0.0
3.806087e-04 2.318893e-03 0.0
-4.113824e-04 9.516137e-03 0.0
-4.543307e-04 8.603706e-03 0.0
4.241189e-04 3.218251e-03 0.0
4.515118e-04 4.195125e-03 0.0
-4.906586e-04 7.643873e-03 0.0
4.736486e-04 5.190215e-03 0.0
1.535979e-04 3.529351e-04 0.0
-1.811015e-04 1.140673e-02 0.0
4.331377e-04 7.628184e-03 0.0
-4.506853e-04 4.176860e-03 0.0
3.861594e-04 8.620534e-03 0.0
-4.133675e-04 3.201821e-03 0.0
3.356943e-04 9.530552e-03 0.0
-3.638071e-04 2.304982e-03 0.0
-3.025794e-04 1.512939e-03 0.0
2.731852e-04 1.033870e-02 0.0
2.481432e-04 8.630096e-04 0.0
-2.770076e-04 1.100192e-02 0.0
-2.448500e-04 1.119896e-02 0.0
2.171613e-04 6.648972e-04 0.0
-2.813897e-04 1.277629e-03 0.0
2.513891e-04 1.057974e-02 0.0
3.180369e-04 9.810377e-03 0.0
-3.465390e-04 2.030346e-03 0.0
3.727589e-04 8.930604e-03 0.0
-4.001805e-04 2.895660e-03 0.0
4.159613e-04 7.965881e-03 0.0
-4.418200e-04 3.848222e-03 0.0
-4.723836e-04 4.855713e-03 0.0
-4.812282e-04 5.192462e-03 0.0
-1.633622e-05 5.849212e-03 0.0
-1.529313e-04 1.139870e-02 0.0
1.267285e-04 2.331788e-04 0.0
-3.312808e-05 6.931276e-03 0.0
-5.712023e-06 2.260749e-04 0.0
-2.160189e-05 1.140227e-02 0.0
-1.154074e-05 6.694135e-04 0.0
-1.605851e-05 1.119488e-02 0.0
-1.043932e-05 1.057726e-02 0.0
-1.750111e-05 2.035322e-03 0.0
-1.237062e-05 9.805248e-03 0.0
-1.956742e-05 2.903452e-03 0.0
-1.983995e-05 3.858479e-03 0.0
-1.415022e-05 7.956462e-03 0.0
-1.854840e-05 4.871761e-03 0.0
-1.225533e-05 8.922529e-03 0.0
-1.798726e-05 1.280201e-03 0.0
-2.219848e-05 1.035582e-02 0.0
-7.714263e-06 1.031642e-02 0.0
1.192935e-05 1.146856e-05 0.0
-4.426630e-07 9.350726e-06 0.0
5.439754e-06 1.035338e-02 0.0
-1.249406e-05 1.240346e-05 0.0
4.598092e-04 4.853447e-03 0.0
4.450919e-04 3.834605e-03 0.0
-4.722142e-04 7.973122e-03 0.0
4.120564e-04 2.882217e-03 0.0
-3.934519e-04 9.823337e-03 0.0
3.627699e-04 2.017400e-03 0.0
-4.423997e-04 8.943988e-03 0.0
-3.325763e-04 1.058504e-02 0.0
3.022677e-04 1.272277e-03 0.0
1.732706e-04 1.120719e-02 0.0
-2.057122e-04 6.574106e-04 0.0
8.383310e-05 1.139256e-02 0.0
-1.167309e-04 2.329479e-04 0.0
-1.588116e-05 6.872836e-05 0.0
1.252162e-05 6.932829e-05 0.0
-9.673805e-06 1.097789e-02 0.0
-3.039129e-05 1.099162e-02 0.0
-5.023785e-04 6.963701e-03 0.0
4.627214e-04 6.971969e-03 0.0
4.749363e-04 6.171691e-03 0.0
-5.041709e-04 6.162391e-03 0.0
7.033763e-05 3.907585e-04 0.0
-9.524026e-05 1.139666e-02 0.0
4.055902e-05 1.083263e-02 0.0
-6.305165e-05 5.891544e-05 0.0
-8.413265e-05 1.084347e-02 0.0
6.803288e-05 5.842718e-05 0.0
2.060237e-04 7.467342e-03 0.0
-2.202725e-04 4.275842e-03 0.0
1.732461e-04 8.527350e-03 0.0
-2.029945e-04 3.294010e-03 0.0
-1.791353e-04 2.387637e-03 0.0
1.497447e-04 9.446529e-03 0.0
-1.492891e-04 1.583533e-03 0.0
1.197948e-04 1.026652e-02 0.0
-1.380718e-04 1.091967e-02 0.0
1.104069e-04 9.446563e-04 0.0
-2.395889e-04 5.366326e-03 0.0
4.671766e-04 5.874264e-03 0.0
-4.923511e-04 5.865959e-03 0.0
-1.165579e-04 1.124834e-02 0.0
8.963248e-05 6.121632e-04 0.0
1.119912e-04 1.065570e-02 0.0
-1.418074e-04 1.203747e-03 0.0
-1.656985e-04 1.948387e-03 0.0
1.363534e-04 9.894149e-03 0.0
1.636522e-04 9.022933e-03 0.0
-1.931763e-04 2.804647e-03 0.0
-2.141680e-04 3.750870e-03 0.0
1.848756e-04 8.065028e-03 0.0
-2.291667e-04 4.758122e-03 0.0
5.345839e-05 6.685334e-03 0.0
-2.111451e-05 1.301768e-05 0.0
1.501601e-05 1.026545e-02 0.0
-3.055175e-05 1.027047e-02 0.0
2.342736e-05 1.220020e-05 0.0
-5.282005e-04 6.660570e-03 0.0
4.951236e-04 6.687120e-03 0.0
2.068716e-04 4.758148e-03 0.0
1.968444e-04 3.748342e-03 0.0
-2.292389e-04 8.065956e-03 0.0
1.797547e-04 2.801638e-03 0.0
-2.113081e-04 9.025597e-03 0.0
-1.861787e-04 9.897394e-03 0.0
1.557907e-04 1.944826e-03 0.0
-1.551377e-04 1.070145e-02 0.0
1.268014e-04 1.158787e-03 0.0
-9.599767e-05 6.100897e-04 0.0
6.580919e-05 1.125104e-02 0.0
-2.301362e-04 6.262627e-03 0.0
1.831891e-04 6.243191e-03 0.0
9.576973e-05 1.095180e-02 0.0
-1.260813e-04 9.126443e-04 0.0
-2.500764e-04 7.468906e-03 0.0
2.048453e-04 4.279792e-03 0.0
1.915648e-04 3.297225e-03 0.0
-2.234313e-04 8.523820e-03 0.0
-2.023052e-04 9.444001e-03 0.0
1.712959e-04 2.389869e-03 0.0
1.440929e-04 1.584580e-03 0.0
-1.735899e-04 1.026532e-02 0.0
2.213207e-04 5.366805e-03 0.0
4.459430e-05 1.139608e-02 0.0
-7.656822e-05 3.907170e-04 0.0
2.143119e-04 5.701967e-03 0.0
-2.415902e-04 5.697922e-03 0.0
-2.659917e-04 7.135415e-03 0.0
1.944285e-04 7.121531e-03 0.0
-2.043917e-04 6.601154e-03 0.0
-7.072623e-05 1.137466e-02 0.0
4.630170e-05 1.944058e-04 0.0
-5.030678e-05 1.941166e-04 0.0
1.744089e-05 1.136713e-02 0.0
9.254951e-05 1.007618e-04 0.0
-1.111809e-04 1.111548e-02 0.0
5.463341e-05 1.110534e-02 0.0
-8.589067e-05 1.014473e-04 0.0
-1.932116e-05 6.122126e-03 0.0
