# vtk DataFile Version 2.0
Simplicial Mesh Example
ASCII
DATASET UNSTRUCTURED_GRID
POINTS 8371 double
0.000000e+00 0.000000e+00 5.565000e-01
4.000000e-02 0.000000e+00 5.565000e-01
4.000000e-02 0.000000e+00 5.435000e-01
3.000000e-02 0.000000e+00 5.435000e-01
3.000000e-02 0.000000e+00 0.000000e+00
2.500000e-02 0.000000e+00 0.000000e+00
2.500000e-02 0.000000e+00 5.500000e-01
0.000000e+00 0.000000e+00 5.500000e-01
2.449294e-18 4.000000e-02 5.565000e-01
2.449294e-18 4.000000e-02 5.435000e-01
1.836970e-18 3.000000e-02 5.435000e-01
1.836970e-18 3.000000e-02 0.000000e+00
1.530808e-18 2.500000e-02 0.000000e+00
1.530808e-18 2.500000e-02 5.500000e-01
2.000000e-03 0.000000e+00 5.565000e-01
4.000000e-03 0.000000e+00 5.565000e-01
6.000000e-03 0.000000e+00 5.565000e-01
8.000000e-03 0.000000e+00 5.565000e-01
1.000000e-02 0.000000e+00 5.565000e-01
1.200000e-02 0.000000e+00 5.565000e-01
1.400000e-02 0.000000e+00 5.565000e-01
1.600000e-02 0.000000e+00 5.565000e-01
1.800000e-02 0.000000e+00 5.565000e-01
2.000000e-02 0.000000e+00 5.565000e-01
2.200000e-02 0.000000e+00 5.565000e-01
2.400000e-02 0.000000e+00 5.565000e-01
2.600000e-02 0.000000e+00 5.565000e-01
2.800000e-02 0.000000e+00 5.565000e-01
3.000000e-02 0.000000e+00 5.565000e-01
3.200000e-02 0.000000e+00 5.565000e-01
3.400000e-02 0.000000e+00 5.565000e-01
3.600000e-02 0.000000e+00 5.565000e-01
3.800000e-02 0.000000e+00 5.565000e-01
4.000000e-02 0.000000e+00 5.546429e-01
4.000000e-02 0.000000e+00 5.527857e-01
4.000000e-02 0.000000e+00 5.509286e-01
4.000000e-02 0.000000e+00 5.490714e-01
4.000000e-02 0.000000e+00 5.472143e-01
4.000000e-02 0.000000e+00 5.453571e-01
3.800000e-02 0.000000e+00 5.435000e-01
3.600000e-02 0.000000e+00 5.435000e-01
3.400000e-02 0.000000e+00 5.435000e-01
3.200000e-02 0.000000e+00 5.435000e-01
3.000000e-02 0.000000e+00 5.393511e-01
3.000000e-02 0.000000e+00 5.352023e-01
3.000000e-02 0.000000e+00 5.310534e-01
3.000000e-02 0.000000e+00 5.269046e-01
3.000000e-02 0.000000e+00 5.227557e-01
3.000000e-02 0.000000e+00 5.186069e-01
3.000000e-02 0.000000e+00 5.144580e-01
3.000000e-02 0.000000e+00 5.103092e-01
3.000000e-02 0.000000e+00 5.061603e-01
3.000000e-02 0.000000e+00 5.020115e-01
3.000000e-02 0.000000e+00 4.978626e-01
3.000000e-02 0.000000e+00 4.937137e-01
3.000000e-02 0.000000e+00 4.895649e-01
3.000000e-02 0.000000e+00 4.854160e-01
3.000000e-02 0.000000e+00 4.812672e-01
3.000000e-02 0.000000e+00 4.771183e-01
3.000000e-02 0.000000e+00 4.729695e-01
3.000000e-02 0.000000e+00 4.688206e-01
3.000000e-02 0.000000e+00 4.646718e-01
3.000000e-02 0.000000e+00 4.605229e-01
3.000000e-02 0.000000e+00 4.563740e-01
3.000000e-02 0.000000e+00 4.522252e-01
3.000000e-02 0.000000e+00 4.480763e-01
3.000000e-02 0.000000e+00 4.439275e-01
3.000000e-02 0.000000e+00 4.397786e-01
3.000000e-02 0.000000e+00 4.356298e-01
3.000000e-02 0.000000e+00 4.314809e-01
3.000000e-02 0.000000e+00 4.273321e-01
3.000000e-02 0.000000e+00 4.231832e-01
3.000000e-02 0.000000e+00 4.190344e-01
3.000000e-02 0.000000e+00 4.148855e-01
3.000000e-02 0.000000e+00 4.107366e-01
3.000000e-02 0.000000e+00 4.065878e-01
3.000000e-02 0.000000e+00 4.024389e-01
3.000000e-02 0.000000e+00 3.982901e-01
3.000000e-02 0.000000e+00 3.941412e-01
3.000000e-02 0.000000e+00 3.899924e-01
3.000000e-02 0.000000e+00 3.858435e-01
3.000000e-02 0.000000e+00 3.816947e-01
3.000000e-02 0.000000e+00 3.775458e-01
3.000000e-02 0.000000e+00 3.733969e-01
3.000000e-02 0.000000e+00 3.692481e-01
3.000000e-02 0.000000e+00 3.650992e-01
3.000000e-02 0.000000e+00 3.609504e-01
3.000000e-02 0.000000e+00 3.568015e-01
3.000000e-02 0.000000e+00 3.526527e-01
3.000000e-02 0.000000e+00 3.485038e-01
3.000000e-02 0.000000e+00 3.443550e-01
3.000000e-02 0.000000e+00 3.402061e-01
3.000000e-02 0.000000e+00 3.360573e-01
3.000000e-02 0.000000e+00 3.319084e-01
3.000000e-02 0.000000e+00 3.277595e-01
3.000000e-02 0.000000e+00 3.236107e-01
3.000000e-02 0.000000e+00 3.194618e-01
3.000000e-02 0.000000e+00 3.153130e-01
3.000000e-02 0.000000e+00 3.111641e-01
3.000000e-02 0.000000e+00 3.070153e-01
3.000000e-02 0.000000e+00 3.028664e-01
3.000000e-02 0.000000e+00 2.987176e-01
3.000000e-02 0.000000e+00 2.945687e-01
3.000000e-02 0.000000e+00 2.904198e-01
3.000000e-02 0.000000e+00 2.862710e-01
3.000000e-02 0.000000e+00 2.821221e-01
3.000000e-02 0.000000e+00 2.779733e-01
3.000000e-02 0.000000e+00 2.738244e-01
3.000000e-02 0.000000e+00 2.696756e-01
3.000000e-02 0.000000e+00 2.655267e-01
3.000000e-02 0.000000e+00 2.613779e-01
3.000000e-02 0.000000e+00 2.572290e-01
3.000000e-02 0.000000e+00 2.530802e-01
3.000000e-02 0.000000e+00 2.489313e-01
3.000000e-02 0.000000e+00 2.447824e-01
3.000000e-02 0.000000e+00 2.406336e-01
3.000000e-02 0.000000e+00 2.364847e-01
3.000000e-02 0.000000e+00 2.323359e-01
3.000000e-02 0.000000e+00 2.281870e-01
3.000000e-02 0.000000e+00 2.240382e-01
3.000000e-02 0.000000e+00 2.198893e-01
3.000000e-02 0.000000e+00 2.157405e-01
3.000000e-02 0.000000e+00 2.115916e-01
3.000000e-02 0.000000e+00 2.074427e-01
3.000000e-02 0.000000e+00 2.032939e-01
3.000000e-02 0.000000e+00 1.991450e-01
3.000000e-02 0.000000e+00 1.949962e-01
3.000000e-02 0.000000e+00 1.908473e-01
3.000000e-02 0.000000e+00 1.866985e-01
3.000000e-02 0.000000e+00 1.825496e-01
3.000000e-02 0.000000e+00 1.784008e-01
3.000000e-02 0.000000e+00 1.742519e-01
3.000000e-02 0.000000e+00 1.701031e-01
3.000000e-02 0.000000e+00 1.659542e-01
3.000000e-02 0.000000e+00 1.618053e-01
3.000000e-02 0.000000e+00 1.576565e-01
3.000000e-02 0.000000e+00 1.535076e-01
3.000000e-02 0.000000e+00 1.493588e-01
3.000000e-02 0.000000e+00 1.452099e-01
3.000000e-02 0.000000e+00 1.410611e-01
3.000000e-02 0.000000e+00 1.369122e-01
3.000000e-02 0.000000e+00 1.327634e-01
3.000000e-02 0.000000e+00 1.286145e-01
3.000000e-02 0.000000e+00 1.244656e-01
3.000000e-02 0.000000e+00 1.203168e-01
3.000000e-02 0.000000e+00 1.161679e-01
3.000000e-02 0.000000e+00 1.120191e-01
3.000000e-02 0.000000e+00 1.078702e-01
3.000000e-02 0.000000e+00 1.037214e-01
3.000000e-02 0.000000e+00 9.957252e-02
3.000000e-02 0.000000e+00 9.542366e-02
3.000000e-02 0.000000e+00 9.127481e-02
3.000000e-02 0.000000e+00 8.712595e-02
3.000000e-02 0.000000e+00 8.297710e-02
3.000000e-02 0.000000e+00 7.882824e-02
3.000000e-02 0.000000e+00 7.467939e-02
3.000000e-02 0.000000e+00 7.053053e-02
3.000000e-02 0.000000e+00 6.638168e-02
3.000000e-02 0.000000e+00 6.223282e-02
3.000000e-02 0.000000e+00 5.808397e-02
3.000000e-02 0.000000e+00 5.393511e-02
3.000000e-02 0.000000e+00 4.978626e-02
3.000000e-02 0.000000e+00 4.563740e-02
3.000000e-02 0.000000e+00 4.148855e-02
3.000000e-02 0.000000e+00 3.733969e-02
3.000000e-02 0.000000e+00 3.319084e-02
3.000000e-02 0.000000e+00 2.904198e-02
3.000000e-02 0.000000e+00 2.489313e-02
3.000000e-02 0.000000e+00 2.074427e-02
3.000000e-02 0.000000e+00 1.659542e-02
3.000000e-02 0.000000e+00 1.244656e-02
3.000000e-02 0.000000e+00 8.297710e-03
3.000000e-02 0.000000e+00 4.148855e-03
2.750000e-02 0.000000e+00 0.000000e+00
2.500000e-02 0.000000e+00 4.135338e-03
2.500000e-02 0.000000e+00 8.270677e-03
2.500000e-02 0.000000e+00 1.240602e-02
2.500000e-02 0.000000e+00 1.654135e-02
2.500000e-02 0.000000e+00 2.067669e-02
2.500000e-02 0.000000e+00 2.481203e-02
2.500000e-02 0.000000e+00 2.894737e-02
2.500000e-02 0.000000e+00 3.308271e-02
2.500000e-02 0.000000e+00 3.721805e-02
2.500000e-02 0.000000e+00 4.135338e-02
2.500000e-02 0.000000e+00 4.548872e-02
2.500000e-02 0.000000e+00 4.962406e-02
2.500000e-02 0.000000e+00 5.375940e-02
2.500000e-02 0.000000e+00 5.789474e-02
2.500000e-02 0.000000e+00 6.203008e-02
2.500000e-02 0.000000e+00 6.616541e-02
2.500000e-02 0.000000e+00 7.030075e-02
2.500000e-02 0.000000e+00 7.443609e-02
2.500000e-02 0.000000e+00 7.857143e-02
2.500000e-02 0.000000e+00 8.270677e-02
2.500000e-02 0.000000e+00 8.684211e-02
2.500000e-02 0.000000e+00 9.097744e-02
2.500000e-02 0.000000e+00 9.511278e-02
2.500000e-02 0.000000e+00 9.924812e-02
2.500000e-02 0.000000e+00 1.033835e-01
2.500000e-02 0.000000e+00 1.075188e-01
2.500000e-02 0.000000e+00 1.116541e-01
2.500000e-02 0.000000e+00 1.157895e-01
2.500000e-02 0.000000e+00 1.199248e-01
2.500000e-02 0.000000e+00 1.240602e-01
2.500000e-02 0.000000e+00 1.281955e-01
2.500000e-02 0.000000e+00 1.323308e-01
2.500000e-02 0.000000e+00 1.364662e-01
2.500000e-02 0.000000e+00 1.406015e-01
2.500000e-02 0.000000e+00 1.447368e-01
2.500000e-02 0.000000e+00 1.488722e-01
2.500000e-02 0.000000e+00 1.530075e-01
2.500000e-02 0.000000e+00 1.571429e-01
2.500000e-02 0.000000e+00 1.612782e-01
2.500000e-02 0.000000e+00 1.654135e-01
2.500000e-02 0.000000e+00 1.695489e-01
2.500000e-02 0.000000e+00 1.736842e-01
2.500000e-02 0.000000e+00 1.778195e-01
2.500000e-02 0.000000e+00 1.819549e-01
2.500000e-02 0.000000e+00 1.860902e-01
2.500000e-02 0.000000e+00 1.902256e-01
2.500000e-02 0.000000e+00 1.943609e-01
2.500000e-02 0.000000e+00 1.984962e-01
2.500000e-02 0.000000e+00 2.026316e-01
2.500000e-02 0.000000e+00 2.067669e-01
2.500000e-02 0.000000e+00 2.109023e-01
2.500000e-02 0.000000e+00 2.150376e-01
2.500000e-02 0.000000e+00 2.191729e-01
2.500000e-02 0.000000e+00 2.233083e-01
2.500000e-02 0.000000e+00 2.274436e-01
2.500000e-02 0.000000e+00 2.315789e-01
2.500000e-02 0.000000e+00 2.357143e-01
2.500000e-02 0.000000e+00 2.398496e-01
2.500000e-02 0.000000e+00 2.439850e-01
2.500000e-02 0.000000e+00 2.481203e-01
2.500000e-02 0.000000e+00 2.522556e-01
2.500000e-02 0.000000e+00 2.563910e-01
2.500000e-02 0.000000e+00 2.605263e-01
2.500000e-02 0.000000e+00 2.646617e-01
2.500000e-02 0.000000e+00 2.687970e-01
2.500000e-02 0.000000e+00 2.729323e-01
2.500000e-02 0.000000e+00 2.770677e-01
2.500000e-02 0.000000e+00 2.812030e-01
2.500000e-02 0.000000e+00 2.853383e-01
2.500000e-02 0.000000e+00 2.894737e-01
2.500000e-02 0.000000e+00 2.936090e-01
2.500000e-02 0.000000e+00 2.977444e-01
2.500000e-02 0.000000e+00 3.018797e-01
2.500000e-02 0.000000e+00 3.060150e-01
2.500000e-02 0.000000e+00 3.101504e-01
2.500000e-02 0.000000e+00 3.142857e-01
2.500000e-02 0.000000e+00 3.184211e-01
2.500000e-02 0.000000e+00 3.225564e-01
2.500000e-02 0.000000e+00 3.266917e-01
[...]
POINT_DATA 8371
VECTORS deformation double
0.000000e+00 0.000000e+00 1.937905e-05
4.378491e-07 0.000000e+00 9.827163e-06
2.588417e-08 0.000000e+00 9.878745e-06
2.424895e-07 0.000000e+00 1.023160e-05
2.348910e-06 0.000000e+00 0.000000e+00
2.610843e-06 0.000000e+00 0.000000e+00
-1.839226e-07 0.000000e+00 1.062416e-05
0.000000e+00 0.000000e+00 1.952921e-05
0.000000e+00 4.371755e-07 9.832273e-06
0.000000e+00 2.665030e-08 9.883847e-06
0.000000e+00 2.433353e-07 1.023652e-05
0.000000e+00 2.333451e-06 0.000000e+00
0.000000e+00 2.595523e-06 0.000000e+00
0.000000e+00 -1.918441e-07 1.062206e-05
2.932890e-07 0.000000e+00 1.929245e-05
5.790346e-07 0.000000e+00 1.903705e-05
8.495758e-07 0.000000e+00 1.861845e-05
1.096290e-06 0.000000e+00 1.804995e-05
1.312801e-06 0.000000e+00 1.734612e-05
1.489371e-06 0.000000e+00 1.653153e-05
1.621210e-06 0.000000e+00 1.563063e-05
1.696265e-06 0.000000e+00 1.467285e-05
1.710146e-06 0.000000e+00 1.369690e-05
1.650354e-06 0.000000e+00 1.274196e-05
1.508354e-06 0.000000e+00 1.186840e-05
1.285367e-06 0.000000e+00 1.114338e-05
1.028363e-06 0.000000e+00 1.063016e-05
7.975877e-07 0.000000e+00 1.032583e-05
6.362534e-07 0.000000e+00 1.016283e-05
5.383010e-07 0.000000e+00 1.007092e-05
4.858423e-07 0.000000e+00 1.000719e-05
4.579474e-07 0.000000e+00 9.949499e-06
4.451788e-07 0.000000e+00 9.890209e-06
3.777616e-07 0.000000e+00 9.832479e-06
3.143002e-07 0.000000e+00 9.839757e-06
2.508614e-07 0.000000e+00 9.851063e-06
1.919327e-07 0.000000e+00 9.864200e-06
1.375639e-07 0.000000e+00 9.873999e-06
8.346306e-08 0.000000e+00 9.878170e-06
2.617598e-08 0.000000e+00 9.943446e-06
3.053699e-08 0.000000e+00 1.001514e-05
4.890045e-08 0.000000e+00 1.009291e-05
9.719919e-08 0.000000e+00 1.016987e-05
9.468771e-07 0.000000e+00 1.020206e-05
1.552031e-06 0.000000e+00 1.003725e-05
1.992924e-06 0.000000e+00 9.841662e-06
2.255401e-06 0.000000e+00 9.662852e-06
2.377849e-06 0.000000e+00 9.519904e-06
2.413965e-06 0.000000e+00 9.407877e-06
2.407474e-06 0.000000e+00 9.317617e-06
2.384926e-06 0.000000e+00 9.238511e-06
2.361087e-06 0.000000e+00 9.166081e-06
2.341545e-06 0.000000e+00 9.094683e-06
2.327568e-06 0.000000e+00 9.022747e-06
2.320208e-06 0.000000e+00 8.950863e-06
2.317068e-06 0.000000e+00 8.877303e-06
2.316007e-06 0.000000e+00 8.803018e-06
2.315998e-06 0.000000e+00 8.727735e-06
2.314251e-06 0.000000e+00 8.651615e-06
2.312525e-06 0.000000e+00 8.576951e-06
2.311081e-06 0.000000e+00 8.501747e-06
2.309989e-06 0.000000e+00 8.426630e-06
2.309392e-06 0.000000e+00 8.351276e-06
2.307368e-06 0.000000e+00 8.276009e-06
2.306345e-06 0.000000e+00 8.201528e-06
2.305954e-06 0.000000e+00 8.126183e-06
2.304440e-06 0.000000e+00 8.051082e-06
2.303732e-06 0.000000e+00 7.976791e-06
2.304264e-06 0.000000e+00 7.901813e-06
2.304433e-06 0.000000e+00 7.826839e-06
2.305720e-06 0.000000e+00 7.752204e-06
2.306361e-06 0.000000e+00 7.676957e-06
2.306336e-06 0.000000e+00 7.601262e-06
2.307276e-06 0.000000e+00 7.526807e-06
2.307989e-06 0.000000e+00 7.451518e-06
2.309055e-06 0.000000e+00 7.377284e-06
2.311914e-06 0.000000e+00 7.302727e-06
2.315284e-06 0.000000e+00 7.227493e-06
2.318509e-06 0.000000e+00 7.152182e-06
2.319972e-06 0.000000e+00 7.074719e-06
2.320046e-06 0.000000e+00 6.999166e-06
2.319494e-06 0.000000e+00 6.923562e-06
2.318671e-06 0.000000e+00 6.848028e-06
2.316402e-06 0.000000e+00 6.771788e-06
2.314868e-06 0.000000e+00 6.698243e-06
2.315273e-06 0.000000e+00 6.623717e-06
2.318209e-06 0.000000e+00 6.549767e-06
2.321005e-06 0.000000e+00 6.473153e-06
2.320367e-06 0.000000e+00 6.394574e-06
2.318064e-06 0.000000e+00 6.320380e-06
2.315146e-06 0.000000e+00 6.244570e-06
2.311127e-06 0.000000e+00 6.167979e-06
2.306464e-06 0.000000e+00 6.093801e-06
2.302829e-06 0.000000e+00 6.018282e-06
2.300578e-06 0.000000e+00 5.945441e-06
2.300266e-06 0.000000e+00 5.870553e-06
2.301159e-06 0.000000e+00 5.797545e-06
2.303444e-06 0.000000e+00 5.722615e-06
2.307251e-06 0.000000e+00 5.648732e-06
2.309785e-06 0.000000e+00 5.573153e-06
2.310650e-06 0.000000e+00 5.498201e-06
2.313238e-06 0.000000e+00 5.422664e-06
2.317893e-06 0.000000e+00 5.349078e-06
2.322248e-06 0.000000e+00 5.272946e-06
2.323174e-06 0.000000e+00 5.195925e-06
2.323555e-06 0.000000e+00 5.121450e-06
2.324880e-06 0.000000e+00 5.046280e-06
2.325395e-06 0.000000e+00 4.970908e-06
2.327069e-06 0.000000e+00 4.896023e-06
2.330244e-06 0.000000e+00 4.821403e-06
2.332469e-06 0.000000e+00 4.745104e-06
2.333097e-06 0.000000e+00 4.668931e-06
2.334834e-06 0.000000e+00 4.594300e-06
2.338255e-06 0.000000e+00 4.518975e-06
2.340405e-06 0.000000e+00 4.442641e-06
2.339133e-06 0.000000e+00 4.365091e-06
2.336987e-06 0.000000e+00 4.291005e-06
2.338955e-06 0.000000e+00 4.217394e-06
2.339762e-06 0.000000e+00 4.139950e-06
2.336192e-06 0.000000e+00 4.061391e-06
2.331722e-06 0.000000e+00 3.987895e-06
2.330493e-06 0.000000e+00 3.913961e-06
2.331244e-06 0.000000e+00 3.838033e-06
2.332615e-06 0.000000e+00 3.764626e-06
2.333081e-06 0.000000e+00 3.687935e-06
2.333130e-06 0.000000e+00 3.613247e-06
2.331284e-06 0.000000e+00 3.535827e-06
2.327914e-06 0.000000e+00 3.460582e-06
2.326513e-06 0.000000e+00 3.387181e-06
2.326823e-06 0.000000e+00 3.312749e-06
2.326143e-06 0.000000e+00 3.236856e-06
2.326519e-06 0.000000e+00 3.163101e-06
2.328622e-06 0.000000e+00 3.088636e-06
2.330175e-06 0.000000e+00 3.012733e-06
2.330008e-06 0.000000e+00 2.936884e-06
2.330209e-06 0.000000e+00 2.861507e-06
2.330856e-06 0.000000e+00 2.787080e-06
2.331642e-06 0.000000e+00 2.711520e-06
2.330987e-06 0.000000e+00 2.635851e-06
2.330555e-06 0.000000e+00 2.561372e-06
2.331200e-06 0.000000e+00 2.487009e-06
2.331451e-06 0.000000e+00 2.412495e-06
2.333033e-06 0.000000e+00 2.337361e-06
2.335108e-06 0.000000e+00 2.262451e-06
2.338790e-06 0.000000e+00 2.187963e-06
2.342723e-06 0.000000e+00 2.112468e-06
2.346104e-06 0.000000e+00 2.037306e-06
2.349059e-06 0.000000e+00 1.961326e-06
2.350460e-06 0.000000e+00 1.885158e-06
2.352238e-06 0.000000e+00 1.810250e-06
2.354538e-06 0.000000e+00 1.734399e-06
2.354750e-06 0.000000e+00 1.657629e-06
2.353491e-06 0.000000e+00 1.582013e-06
2.351590e-06 0.000000e+00 1.506143e-06
2.348804e-06 0.000000e+00 1.431028e-06
2.348995e-06 0.000000e+00 1.356951e-06
2.351083e-06 0.000000e+00 1.282629e-06
2.355004e-06 0.000000e+00 1.207840e-06
2.357510e-06 0.000000e+00 1.130916e-06
2.357114e-06 0.000000e+00 1.054049e-06
2.355966e-06 0.000000e+00 9.788627e-07
2.353507e-06 0.000000e+00 9.025135e-07
2.352130e-06 0.000000e+00 8.279647e-07
2.352716e-06 0.000000e+00 7.528182e-07
2.352001e-06 0.000000e+00 6.766515e-07
2.350415e-06 0.000000e+00 6.015361e-07
2.349699e-06 0.000000e+00 5.272811e-07
2.350064e-06 0.000000e+00 4.523156e-07
2.352092e-06 0.000000e+00 3.777197e-07
2.354385e-06 0.000000e+00 3.024409e-07
2.353526e-06 0.000000e+00 2.239350e-07
2.350736e-06 0.000000e+00 1.488928e-07
2.348607e-06 0.000000e+00 7.490390e-08
2.465431e-06 0.000000e+00 0.000000e+00
2.611908e-06 0.000000e+00 7.583686e-08
2.612854e-06 0.000000e+00 1.525747e-07
2.616827e-06 0.000000e+00 2.264377e-07
2.618304e-06 0.000000e+00 3.003128e-07
2.615328e-06 0.000000e+00 3.729850e-07
2.613223e-06 0.000000e+00 4.505527e-07
2.612690e-06 0.000000e+00 5.250511e-07
2.613219e-06 0.000000e+00 5.997597e-07
2.614868e-06 0.000000e+00 6.772985e-07
2.616234e-06 0.000000e+00 7.497842e-07
2.615551e-06 0.000000e+00 8.251359e-07
2.617092e-06 0.000000e+00 9.023956e-07
2.618971e-06 0.000000e+00 9.770132e-07
2.620523e-06 0.000000e+00 1.052967e-06
2.620850e-06 0.000000e+00 1.125777e-06
2.617632e-06 0.000000e+00 1.199191e-06
2.614211e-06 0.000000e+00 1.274158e-06
2.611882e-06 0.000000e+00 1.351357e-06
2.612091e-06 0.000000e+00 1.427889e-06
2.613485e-06 0.000000e+00 1.505037e-06
2.615416e-06 0.000000e+00 1.578931e-06
2.616516e-06 0.000000e+00 1.653183e-06
2.616261e-06 0.000000e+00 1.726304e-06
2.614114e-06 0.000000e+00 1.802194e-06
2.612452e-06 0.000000e+00 1.877099e-06
2.610690e-06 0.000000e+00 1.952375e-06
2.608244e-06 0.000000e+00 2.027598e-06
2.605738e-06 0.000000e+00 2.101806e-06
2.601344e-06 0.000000e+00 2.175471e-06
2.598315e-06 0.000000e+00 2.251595e-06
2.596213e-06 0.000000e+00 2.327903e-06
2.594287e-06 0.000000e+00 2.403030e-06
2.593153e-06 0.000000e+00 2.479049e-06
2.592249e-06 0.000000e+00 2.552609e-06
2.592748e-06 0.000000e+00 2.628436e-06
2.593611e-06 0.000000e+00 2.702636e-06
2.593545e-06 0.000000e+00 2.776019e-06
2.592832e-06 0.000000e+00 2.852361e-06
2.592840e-06 0.000000e+00 2.927676e-06
2.592933e-06 0.000000e+00 3.002765e-06
2.591053e-06 0.000000e+00 3.076439e-06
2.589120e-06 0.000000e+00 3.151046e-06
2.588649e-06 0.000000e+00 3.227582e-06
2.589526e-06 0.000000e+00 3.302964e-06
2.588341e-06 0.000000e+00 3.375907e-06
2.589902e-06 0.000000e+00 3.452105e-06
2.593486e-06 0.000000e+00 3.528889e-06
2.595599e-06 0.000000e+00 3.601197e-06
2.595336e-06 0.000000e+00 3.676596e-06
2.594945e-06 0.000000e+00 3.750923e-06
2.593492e-06 0.000000e+00 3.823663e-06
2.593150e-06 0.000000e+00 3.901796e-06
2.593959e-06 0.000000e+00 3.976645e-06
2.598050e-06 0.000000e+00 4.055722e-06
2.602284e-06 0.000000e+00 4.128279e-06
2.601385e-06 0.000000e+00 4.202456e-06
2.599516e-06 0.000000e+00 4.276674e-06
2.602135e-06 0.000000e+00 4.354662e-06
2.602780e-06 0.000000e+00 4.427028e-06
2.600436e-06 0.000000e+00 4.500586e-06
2.598279e-06 0.000000e+00 4.574089e-06
2.596252e-06 0.000000e+00 4.652553e-06
2.595891e-06 0.000000e+00 4.728442e-06
2.592966e-06 0.000000e+00 4.802575e-06
2.590342e-06 0.000000e+00 4.876054e-06
2.588460e-06 0.000000e+00 4.953571e-06
2.587845e-06 0.000000e+00 5.029203e-06
2.586464e-06 0.000000e+00 5.101786e-06
2.585806e-06 0.000000e+00 5.181375e-06
2.585578e-06 0.000000e+00 5.252656e-06
2.580747e-06 0.000000e+00 5.324803e-06
2.576417e-06 0.000000e+00 5.399710e-06
2.573807e-06 0.000000e+00 5.478368e-06
2.572180e-06 0.000000e+00 5.553473e-06
2.570122e-06 0.000000e+00 5.626033e-06
2.565721e-06 0.000000e+00 5.700670e-06
2.563886e-06 0.000000e+00 5.775600e-06
2.562483e-06 0.000000e+00 5.851049e-06
2.562626e-06 0.000000e+00 5.926530e-06
2.564360e-06 0.000000e+00 6.002936e-06
2.568311e-06 0.000000e+00 6.078978e-06
2.572044e-06 0.000000e+00 6.153866e-06
2.576817e-06 0.000000e+00 6.228034e-06
2.579251e-06 0.000000e+00 6.303394e-06
2.582725e-06 0.000000e+00 6.376469e-06
2.584351e-06 0.000000e+00 6.451315e-06
2.581731e-06 0.000000e+00 6.523521e-06
2.578722e-06 0.000000e+00 6.598819e-06
2.577127e-06 0.000000e+00 6.676025e-06
2.577935e-06 0.000000e+00 6.752413e-06
2.580641e-06 0.000000e+00 6.828287e-06
2.582005e-06 0.000000e+00 6.901247e-06
2.582922e-06 0.000000e+00 6.976703e-06
2.583181e-06 0.000000e+00 7.051721e-06
2.582583e-06 0.000000e+00 7.125507e-06
2.579210e-06 0.000000e+00 7.200096e-06
2.575206e-06 0.000000e+00 7.275062e-06
2.572539e-06 0.000000e+00 7.349118e-06
2.570606e-06 0.000000e+00 7.426964e-06
2.570396e-06 0.000000e+00 7.501143e-06
2.568935e-06 0.000000e+00 7.575678e-06
2.569316e-06 0.000000e+00 7.652264e-06
2.568735e-06 0.000000e+00 7.725668e-06
2.567649e-06 0.000000e+00 7.800374e-06
2.567233e-06 0.000000e+00 7.875945e-06
2.566950e-06 0.000000e+00 7.950172e-06
2.567082e-06 0.000000e+00 8.025726e-06
2.568369e-06 0.000000e+00 8.101070e-06
2.569169e-06 0.000000e+00 8.175536e-06
2.569967e-06 0.000000e+00 8.250926e-06
2.571601e-06 0.000000e+00 8.325955e-06
2.572808e-06 0.000000e+00 8.399913e-06
2.573642e-06 0.000000e+00 8.475043e-06
2.574886e-06 0.000000e+00 8.550557e-06
2.576212e-06 0.000000e+00 8.625741e-06
2.577683e-06 0.000000e+00 8.700390e-06
2.578567e-06 0.000000e+00 8.773681e-06
2.578406e-06 0.000000e+00 8.850947e-06
2.581440e-06 0.000000e+00 8.926334e-06
2.586964e-06 0.000000e+00 9.005082e-06
2.598805e-06 0.000000e+00 9.084371e-06
2.616411e-06 0.000000e+00 9.162968e-06
2.640660e-06 0.000000e+00 9.236491e-06
2.666620e-06 0.000000e+00 9.307369e-06
2.682820e-06 0.000000e+00 9.365562e-06
2.667871e-06 0.000000e+00 9.407070e-06
2.583043e-06 0.000000e+00 9.420197e-06
2.374655e-06 0.000000e+00 9.412858e-06
1.992787e-06 0.000000e+00 9.400753e-06
1.423144e-06 0.000000e+00 9.445205e-06
7.504833e-07 0.000000e+00 9.613303e-06
2.656296e-07 0.000000e+00 1.000728e-05
-8.213869e-07 0.000000e+00 1.224285e-05
-1.063570e-06 0.000000e+00 1.391971e-05
-1.116814e-06 0.000000e+00 1.564536e-05
-9.915756e-07 0.000000e+00 1.721695e-05
-7.353173e-07 0.000000e+00 1.846114e-05
-3.891703e-07 0.000000e+00 1.925567e-05
0.000000e+00 0.000000e+00 1.961443e-05
0.000000e+00 2.935766e-07 1.929220e-05
0.000000e+00 5.787826e-07 1.903664e-05
0.000000e+00 8.492135e-07 1.861840e-05
0.000000e+00 1.095713e-06 1.805003e-05
0.000000e+00 1.312086e-06 1.734713e-05
0.000000e+00 1.488884e-06 1.653296e-05
0.000000e+00 1.620210e-06 1.563082e-05
0.000000e+00 1.696588e-06 1.467400e-05
0.000000e+00 1.710734e-06 1.369697e-05
0.000000e+00 1.650581e-06 1.274289e-05
0.000000e+00 1.507326e-06 1.186976e-05
0.000000e+00 1.284814e-06 1.114758e-05
0.000000e+00 1.030495e-06 1.063395e-05
0.000000e+00 7.967646e-07 1.032935e-05
0.000000e+00 6.370587e-07 1.016716e-05
0.000000e+00 5.377324e-07 1.007538e-05
0.000000e+00 4.848310e-07 1.001142e-05
0.000000e+00 4.572939e-07 9.954308e-06
0.000000e+00 4.445602e-07 9.895134e-06
4.374933e-07 2.222552e-08 9.829214e-06
4.352041e-07 4.484073e-08 9.828343e-06
4.328592e-07 6.712816e-08 9.826530e-06
4.288499e-07 8.874581e-08 9.826358e-06
4.238461e-07 1.104597e-07 9.826221e-06
4.175822e-07 1.317576e-07 9.826066e-06
4.100883e-07 1.526230e-07 9.825979e-06
4.022182e-07 1.732415e-07 9.825525e-06
3.923746e-07 1.929700e-07 9.825536e-06
3.827050e-07 2.126037e-07 9.825110e-06
3.716741e-07 2.318004e-07 9.824879e-06
3.592462e-07 2.499536e-07 9.824945e-06
3.464741e-07 2.674685e-07 9.825100e-06
3.326716e-07 2.848445e-07 9.825063e-06
3.179059e-07 3.010093e-07 9.825338e-06
3.023701e-07 3.164571e-07 9.825786e-06
2.860502e-07 3.312289e-07 9.826293e-06
2.690047e-07 3.449920e-07 9.826803e-06
2.512332e-07 3.582695e-07 9.827235e-06
2.329191e-07 3.704669e-07 9.827852e-06
2.138057e-07 3.817594e-07 9.828380e-06
1.942191e-07 3.920285e-07 9.828974e-06
1.739907e-07 4.012298e-07 9.829677e-06
1.533199e-07 4.094421e-07 9.830312e-06
1.321979e-07 4.165908e-07 9.830855e-06
1.108406e-07 4.227560e-07 9.831344e-06
8.901731e-08 4.279141e-07 9.831595e-06
6.731052e-08 4.318940e-07 9.831720e-06
4.532723e-08 4.352253e-07 9.832989e-06
2.216850e-08 4.369331e-07 9.834288e-06
0.000000e+00 3.772193e-07 9.837514e-06
0.000000e+00 3.138289e-07 9.844937e-06
0.000000e+00 2.505844e-07 9.856402e-06
0.000000e+00 1.919633e-07 9.869452e-06
0.000000e+00 1.379102e-07 9.879237e-06
0.000000e+00 8.405573e-08 9.883348e-06
2.581340e-08 1.285919e-09 9.881078e-06
2.502470e-08 2.539693e-09 9.879460e-06
2.491677e-08 3.732407e-09 9.878118e-06
2.455835e-08 4.930106e-09 9.878060e-06
2.396092e-08 6.007555e-09 9.877565e-06
2.350676e-08 7.294190e-09 9.877449e-06
2.260594e-08 8.233960e-09 9.877014e-06
2.211093e-08 9.383272e-09 9.876758e-06
2.119766e-08 1.029715e-08 9.876429e-06
2.058390e-08 1.133476e-08 9.876226e-06
1.994697e-08 1.246907e-08 9.876161e-06
1.929090e-08 1.349248e-08 9.876154e-06
1.853161e-08 1.458332e-08 9.876108e-06
1.813172e-08 1.600311e-08 9.876651e-06
1.712326e-08 1.711018e-08 9.876823e-06
1.624791e-08 1.808303e-08 9.877166e-06
1.543294e-08 1.936091e-08 9.877691e-06
1.445788e-08 2.036303e-08 9.878153e-06
1.339278e-08 2.138427e-08 9.878813e-06
1.232988e-08 2.223618e-08 9.879414e-06
1.121346e-08 2.307766e-08 9.879993e-06
1.011598e-08 2.371137e-08 9.880546e-06
9.018718e-09 2.436955e-08 9.881246e-06
7.849773e-09 2.485729e-08 9.881778e-06
6.845745e-09 2.537162e-08 9.882315e-06
5.663877e-09 2.586188e-08 9.882858e-06
4.547170e-09 2.621775e-08 9.883265e-06
3.420768e-09 2.638237e-08 9.883586e-06
2.203882e-09 2.617442e-08 9.884728e-06
1.140057e-09 2.665885e-08 9.886299e-06
0.000000e+00 2.690220e-08 9.948378e-06
0.000000e+00 3.141109e-08 1.001977e-05
0.000000e+00 4.982296e-08 1.009702e-05
0.000000e+00 9.836856e-08 1.017444e-05
2.443157e-07 1.035035e-08 1.022790e-05
2.368479e-07 2.325554e-08 1.022829e-05
2.434694e-07 3.869974e-08 1.023262e-05
2.378852e-07 4.832595e-08 1.022786e-05
2.325811e-07 6.057377e-08 1.022811e-05
2.328505e-07 7.388015e-08 1.023155e-05
2.222575e-07 8.396866e-08 1.022744e-05
2.228931e-07 9.310366e-08 1.022766e-05
2.147163e-07 1.051197e-07 1.022974e-05
2.056205e-07 1.140848e-07 1.022523e-05
2.068602e-07 1.263053e-07 1.022939e-05
1.933405e-07 1.358591e-07 1.022529e-05
1.888984e-07 1.481039e-07 1.022672e-05
1.830931e-07 1.558466e-07 1.022993e-05
1.735713e-07 1.634288e-07 1.022756e-05
1.630426e-07 1.714192e-07 1.022547e-05
1.585037e-07 1.857948e-07 1.022805e-05
1.409609e-07 1.870138e-07 1.022287e-05
1.375519e-07 1.952856e-07 1.022571e-05
1.211014e-07 2.003878e-07 1.022531e-05
1.158096e-07 2.098868e-07 1.022618e-05
1.035719e-07 2.144307e-07 1.023031e-05
9.756208e-08 2.268287e-07 1.023328e-05
8.705360e-08 2.324326e-07 1.023561e-05
6.709332e-08 2.334207e-07 1.023326e-05
5.682327e-08 2.327301e-07 1.023347e-05
4.753912e-08 2.383715e-07 1.023446e-05
3.895255e-08 2.429660e-07 1.023529e-05
2.346490e-08 2.471313e-07 1.024037e-05
1.250100e-08 2.494760e-07 1.023464e-05
0.000000e+00 9.508041e-07 1.020727e-05
0.000000e+00 1.558111e-06 1.004248e-05
0.000000e+00 2.001064e-06 9.844356e-06
0.000000e+00 2.265016e-06 9.667685e-06
0.000000e+00 2.389659e-06 9.523918e-06
0.000000e+00 2.427403e-06 9.412089e-06
0.000000e+00 2.422569e-06 9.322194e-06
0.000000e+00 2.402911e-06 9.244639e-06
0.000000e+00 2.383510e-06 9.172372e-06
0.000000e+00 2.369766e-06 9.101412e-06
0.000000e+00 2.361337e-06 9.029031e-06
0.000000e+00 2.356570e-06 8.953503e-06
0.000000e+00 2.353080e-06 8.880473e-06
0.000000e+00 2.351713e-06 8.806110e-06
0.000000e+00 2.351756e-06 8.730473e-06
0.000000e+00 2.351585e-06 8.654301e-06
0.000000e+00 2.351769e-06 8.580540e-06
0.000000e+00 2.354071e-06 8.505425e-06
0.000000e+00 2.356714e-06 8.429420e-06
0.000000e+00 2.358232e-06 8.353307e-06
0.000000e+00 2.358294e-06 8.277443e-06
0.000000e+00 2.357578e-06 8.201729e-06
0.000000e+00 2.356500e-06 8.125693e-06
0.000000e+00 2.355092e-06 8.050360e-06
0.000000e+00 2.353770e-06 7.974744e-06
0.000000e+00 2.352031e-06 7.898838e-06
0.000000e+00 2.348995e-06 7.822849e-06
0.000000e+00 2.345484e-06 7.747668e-06
0.000000e+00 2.343739e-06 7.673441e-06
0.000000e+00 2.342153e-06 7.597237e-06
0.000000e+00 2.341296e-06 7.522504e-06
0.000000e+00 2.340682e-06 7.447147e-06
0.000000e+00 2.339648e-06 7.372146e-06
0.000000e+00 2.338979e-06 7.296698e-06
0.000000e+00 2.337433e-06 7.221079e-06
0.000000e+00 2.335496e-06 7.145593e-06
0.000000e+00 2.333048e-06 7.068693e-06
0.000000e+00 2.330175e-06 6.994635e-06
0.000000e+00 2.327510e-06 6.918441e-06
0.000000e+00 2.324165e-06 6.843101e-06
0.000000e+00 2.320517e-06 6.767864e-06
0.000000e+00 2.317631e-06 6.693649e-06
0.000000e+00 2.315600e-06 6.618642e-06
0.000000e+00 2.314970e-06 6.544263e-06
0.000000e+00 2.313710e-06 6.469580e-06
0.000000e+00 2.313336e-06 6.394579e-06
0.000000e+00 2.312002e-06 6.318451e-06
0.000000e+00 2.310531e-06 6.243360e-06
0.000000e+00 2.308684e-06 6.167141e-06
0.000000e+00 2.305142e-06 6.091758e-06
0.000000e+00 2.300433e-06 6.017096e-06
0.000000e+00 2.298248e-06 5.943769e-06
0.000000e+00 2.298384e-06 5.868927e-06
0.000000e+00 2.297665e-06 5.790879e-06
0.000000e+00 2.294908e-06 5.717935e-06
0.000000e+00 2.293466e-06 5.642675e-06
0.000000e+00 2.293828e-06 5.568387e-06
0.000000e+00 2.295071e-06 5.494831e-06
0.000000e+00 2.295730e-06 5.416723e-06
0.000000e+00 2.294481e-06 5.342162e-06
0.000000e+00 2.294017e-06 5.267117e-06
0.000000e+00 2.292878e-06 5.191632e-06
0.000000e+00 2.292945e-06 5.117047e-06
0.000000e+00 2.294209e-06 5.042609e-06
0.000000e+00 2.293388e-06 4.964774e-06
0.000000e+00 2.289632e-06 4.889804e-06
0.000000e+00 2.287610e-06 4.816212e-06
0.000000e+00 2.286040e-06 4.739708e-06
0.000000e+00 2.284494e-06 4.666359e-06
0.000000e+00 2.284086e-06 4.591516e-06
0.000000e+00 2.285843e-06 4.517819e-06
0.000000e+00 2.287122e-06 4.442551e-06
0.000000e+00 2.287893e-06 4.367908e-06
0.000000e+00 2.288926e-06 4.292716e-06
0.000000e+00 2.289006e-06 4.216120e-06
0.000000e+00 2.289144e-06 4.142440e-06
0.000000e+00 2.290714e-06 4.067564e-06
0.000000e+00 2.292605e-06 3.993376e-06
0.000000e+00 2.295411e-06 3.919878e-06