# vtk DataFile Version 2.0
Simplicial Mesh Example
ASCII
DATASET UNSTRUCTURED_GRID
POINTS 20 double
-5.000000e-01 0.000000e+00 0.0
5.000000e-01 0.000000e+00 0.0
5.000000e-01 1.000000e-01 0.0
-5.000000e-01 1.000000e-01 0.0
-3.333333e-01 0.000000e+00 0.0
-1.666667e-01 0.000000e+00 0.0
-1.375122e-12 0.000000e+00 0.0
1.666667e-01 0.000000e+00 0.0
3.333333e-01 0.000000e+00 0.0
3.333333e-01 1.000000e-01 0.0
1.666667e-01 1.000000e-01 0.0
1.375122e-12 1.000000e-01 0.0
-1.666667e-01 1.000000e-01 0.0
-3.333333e-01 1.000000e-01 0.0
4.166667e-01 5.000000e-02 0.0
-4.166667e-01 5.000000e-02 0.0
-2.500000e-01 5.000000e-02 0.0
2.500000e-01 5.000000e-02 0.0
8.333333e-02 5.000000e-02 0.0
-8.333333e-02 5.000000e-02 0.0
CELLS 24 96
3  6 18 11
3  6 11 19
3  5 12 16
3  8 9 17
3  8 14 9
3  4 13 15
3  0 15 3
3  1 2 14
3  7 17 10
3  4 16 13
3  5 19 12
3  7 10 18
3  0 4 15
3  1 14 8
3  2 9 14
3  3 15 13
3  4 5 16
3  5 6 19
3  6 7 18
3  7 8 17
3  9 10 17
3  10 11 18
3  11 12 19
3  12 13 16
CELL_TYPES 24
5
5
5
5
5
5
5
5
5
5
5
5
5
5
5
5
5
5
5
5
5
5
5
5
POINT_DATA 20
VECTORS deformation double
0.000000e+00 0.000000e+00 0.0
-4.000000e-01 0.000000e+00 0.0
-4.000000e-01 0.000000e+00 0.0
0.000000e+00 0.000000e+00 0.0
-6.258253e-02 -7.140697e-03 0.0
-1.318923e-01 -5.983767e-03 0.0
-2.000000e-01 -6.217313e-03 0.0
-2.681077e-01 -5.983767e-03 0.0
-3.374175e-01 -7.140697e-03 0.0
-3.374175e-01 7.140697e-03 0.0
-2.681077e-01 5.983767e-03 0.0
-2.000000e-01 6.217313e-03 0.0
-1.318923e-01 5.983767e-03 0.0
-6.258253e-02 7.140697e-03 0.0
-3.726155e-01 1.049477e-13 0.0
-2.738453e-02 -2.630329e-14 0.0
-9.795190e-02 -4.667651e-13 0.0
-3.020481e-01 -5.717207e-13 0.0
-2.341952e-01 -6.601253e-13 0.0
-1.658048e-01 -6.702136e-13 0.0
