# vtk DataFile Version 2.0
Simplicial Mesh Example
ASCII
DATASET UNSTRUCTURED_GRID
POINTS 379 double
-5.000000e-01 0.000000e+00 0.0
5.000000e-01 0.000000e+00 0.0
5.000000e-01 1.000000e-01 0.0
-5.000000e-01 1.000000e-01 0.0
-4.795918e-01 0.000000e+00 0.0
-4.591837e-01 0.000000e+00 0.0
-4.387755e-01 0.000000e+00 0.0
-4.183673e-01 0.000000e+00 0.0
-3.979592e-01 0.000000e+00 0.0
-3.775510e-01 0.000000e+00 0.0
-3.571429e-01 0.000000e+00 0.0
-3.367347e-01 0.000000e+00 0.0
-3.163265e-01 0.000000e+00 0.0
-2.959184e-01 0.000000e+00 0.0
-2.755102e-01 0.000000e+00 0.0
-2.551020e-01 0.000000e+00 0.0
-2.346939e-01 0.000000e+00 0.0
-2.142857e-01 0.000000e+00 0.0
-1.938776e-01 0.000000e+00 0.0
-1.734694e-01 0.000000e+00 0.0
-1.530612e-01 0.000000e+00 0.0
-1.326531e-01 0.000000e+00 0.0
-1.122449e-01 0.000000e+00 0.0
-9.183673e-02 0.000000e+00 0.0
-7.142857e-02 0.000000e+00 0.0
-5.102041e-02 0.000000e+00 0.0
-3.061224e-02 0.000000e+00 0.0
-1.020408e-02 0.000000e+00 0.0
1.020408e-02 0.000000e+00 0.0
3.061224e-02 0.000000e+00 0.0
5.102041e-02 0.000000e+00 0.0
7.142857e-02 0.000000e+00 0.0
9.183673e-02 0.000000e+00 0.0
1.122449e-01 0.000000e+00 0.0
1.326531e-01 0.000000e+00 0.0
1.530612e-01 0.000000e+00 0.0
1.734694e-01 0.000000e+00 0.0
1.938776e-01 0.000000e+00 0.0
2.142857e-01 0.000000e+00 0.0
2.346939e-01 0.000000e+00 0.0
2.551020e-01 0.000000e+00 0.0
2.755102e-01 0.000000e+00 0.0
2.959184e-01 0.000000e+00 0.0
3.163265e-01 0.000000e+00 0.0
3.367347e-01 0.000000e+00 0.0
3.571429e-01 0.000000e+00 0.0
3.775510e-01 0.000000e+00 0.0
3.979592e-01 0.000000e+00 0.0
4.183673e-01 0.000000e+00 0.0
4.387755e-01 0.000000e+00 0.0
4.591837e-01 0.000000e+00 0.0
4.795918e-01 0.000000e+00 0.0
5.000000e-01 1.111111e-02 0.0
5.000000e-01 2.222222e-02 0.0
5.000000e-01 3.333333e-02 0.0
5.000000e-01 4.444444e-02 0.0
5.000000e-01 5.555556e-02 0.0
5.000000e-01 6.666667e-02 0.0
5.000000e-01 7.777778e-02 0.0
5.000000e-01 8.888889e-02 0.0
4.795918e-01 1.000000e-01 0.0
4.591837e-01 1.000000e-01 0.0
4.387755e-01 1.000000e-01 0.0
4.183673e-01 1.000000e-01 0.0
3.979592e-01 1.000000e-01 0.0
3.775510e-01 1.000000e-01 0.0
3.571429e-01 1.000000e-01 0.0
3.367347e-01 1.000000e-01 0.0
3.163265e-01 1.000000e-01 0.0
2.959184e-01 1.000000e-01 0.0
2.755102e-01 1.000000e-01 0.0
2.551020e-01 1.000000e-01 0.0
2.346939e-01 1.000000e-01 0.0
2.142857e-01 1.000000e-01 0.0
1.938776e-01 1.000000e-01 0.0
1.734694e-01 1.000000e-01 0.0
1.530612e-01 1.000000e-01 0.0
1.326531e-01 1.000000e-01 0.0
1.122449e-01 1.000000e-01 0.0
9.183673e-02 1.000000e-01 0.0
7.142857e-02 1.000000e-01 0.0
5.102041e-02 1.000000e-01 0.0
3.061224e-02 1.000000e-01 0.0
1.020408e-02 1.000000e-01 0.0
-1.020408e-02 1.000000e-01 0.0
-3.061224e-02 1.000000e-01 0.0
-5.102041e-02 1.000000e-01 0.0
-7.142857e-02 1.000000e-01 0.0
-9.183673e-02 1.000000e-01 0.0
-1.122449e-01 1.000000e-01 0.0
-1.326531e-01 1.000000e-01 0.0
-1.530612e-01 1.000000e-01 0.0
-1.734694e-01 1.000000e-01 0.0
-1.938776e-01 1.000000e-01 0.0
-2.142857e-01 1.000000e-01 0.0
-2.346939e-01 1.000000e-01 0.0
-2.551020e-01 1.000000e-01 0.0
-2.755102e-01 1.000000e-01 0.0
-2.959184e-01 1.000000e-01 0.0
-3.163265e-01 1.000000e-01 0.0
-3.367347e-01 1.000000e-01 0.0
-3.571429e-01 1.000000e-01 0.0
-3.775510e-01 1.000000e-01 0.0
-3.979592e-01 1.000000e-01 0.0
-4.183673e-01 1.000000e-01 0.0
-4.387755e-01 1.000000e-01 0.0
-4.591837e-01 1.000000e-01 0.0
-4.795918e-01 1.000000e-01 0.0
-5.000000e-01 8.888889e-02 0.0
-5.000000e-01 7.777778e-02 0.0
-5.000000e-01 6.666667e-02 0.0
-5.000000e-01 5.555556e-02 0.0
-5.000000e-01 4.444444e-02 0.0
-5.000000e-01 3.333333e-02 0.0
-5.000000e-01 2.222222e-02 0.0
-5.000000e-01 1.111111e-02 0.0
4.493449e-01 5.000000e-02 0.0
-4.493449e-01 5.000000e-02 0.0
3.880136e-01 4.962932e-02 0.0
-3.880136e-01 5.037068e-02 0.0
-3.267270e-01 5.319893e-02 0.0
3.267270e-01 4.680107e-02 0.0
-2.655467e-01 4.967431e-02 0.0
2.655467e-01 5.032569e-02 0.0
-2.043222e-01 4.967431e-02 0.0
2.043222e-01 5.032569e-02 0.0
1.430977e-01 5.032569e-02 0.0
-1.430977e-01 4.967431e-02 0.0
-8.187322e-02 4.967431e-02 0.0
8.267204e-02 5.065948e-02 0.0
-2.164368e-02 4.933263e-02 0.0
2.960204e-02 5.000000e-02 0.0
-4.715508e-01 2.818680e-02 0.0
4.715508e-01 7.181320e-02 0.0
4.715360e-01 2.819080e-02 0.0
-4.715360e-01 7.180920e-02 0.0
4.762296e-01 5.000515e-02 0.0
-4.762296e-01 4.999485e-02 0.0
-4.180356e-01 3.460531e-02 0.0
4.180356e-01 6.539469e-02 0.0
-5.102041e-02 6.562890e-02 0.0
-1.122449e-01 6.562890e-02 0.0
1.122449e-01 3.437110e-02 0.0
1.734694e-01 3.437110e-02 0.0
-1.734694e-01 6.562890e-02 0.0
2.346939e-01 3.437110e-02 0.0
-2.346939e-01 6.562890e-02 0.0
3.571429e-01 6.562890e-02 0.0
-3.571429e-01 3.437110e-02 0.0
-2.959184e-01 6.562890e-02 0.0
2.959184e-01 3.437110e-02 0.0
-3.578550e-01 6.627666e-02 0.0
3.578550e-01 3.372334e-02 0.0
2.966305e-01 6.627666e-02 0.0
-2.966305e-01 3.372334e-02 0.0
2.354060e-01 6.627666e-02 0.0
-2.354060e-01 3.372334e-02 0.0
-1.741815e-01 3.372334e-02 0.0
1.741815e-01 6.627666e-02 0.0
1.129570e-01 6.627666e-02 0.0
-1.129570e-01 3.372334e-02 0.0
-5.175568e-02 3.371284e-02 0.0
4.193433e-01 3.330203e-02 0.0
-4.193433e-01 6.669797e-02 0.0
5.561735e-02 3.155664e-02 0.0
5.581762e-02 6.876666e-02 0.0
5.087868e-03 6.723488e-02 0.0
5.087868e-03 3.276512e-02 0.0
-4.462058e-01 2.454646e-02 0.0
4.462058e-01 7.545354e-02 0.0
4.462058e-01 2.454646e-02 0.0
-4.462058e-01 7.545354e-02 0.0
8.185885e-02 1.744226e-02 0.0
-8.163265e-02 7.604123e-02 0.0
1.428571e-01 2.395877e-02 0.0
-1.428571e-01 7.604123e-02 0.0
2.040816e-01 2.395877e-02 0.0
-2.040816e-01 7.604123e-02 0.0
2.653061e-01 2.395877e-02 0.0
-2.653061e-01 7.604123e-02 0.0
-3.877397e-01 2.229049e-02 0.0
3.877397e-01 7.770951e-02 0.0
-3.265306e-01 7.604123e-02 0.0
3.265306e-01 2.395877e-02 0.0
-3.270067e-01 1.770059e-02 0.0
3.270067e-01 8.229941e-02 0.0
3.877551e-01 2.395877e-02 0.0
-3.877551e-01 7.604123e-02 0.0
2.653061e-01 7.604123e-02 0.0
-2.653061e-01 2.395877e-02 0.0
-2.040816e-01 2.395877e-02 0.0
2.040816e-01 7.604123e-02 0.0
-1.428571e-01 2.395877e-02 0.0
1.428571e-01 7.604123e-02 0.0
-8.163265e-02 2.395877e-02 0.0
8.186027e-02 8.095500e-02 0.0
-2.133125e-02 1.932044e-02 0.0
-2.125858e-02 8.041451e-02 0.0
-4.852691e-01 1.569026e-02 0.0
4.852691e-01 8.430974e-02 0.0
4.852675e-01 1.569066e-02 0.0
-4.852675e-01 8.430934e-02 0.0
3.144290e-02 2.502699e-02 0.0
3.088244e-02 7.680137e-02 0.0
4.867574e-01 3.888889e-02 0.0
-4.867574e-01 6.111111e-02 0.0
4.867574e-01 6.111111e-02 0.0
-4.867574e-01 3.888889e-02 0.0
-4.095899e-01 5.068522e-02 0.0
4.095899e-01 4.931478e-02 0.0
-4.076578e-01 8.200578e-02 0.0
4.076578e-01 1.799422e-02 0.0
3.466876e-01 4.831309e-02 0.0
-3.466876e-01 5.168691e-02 0.0
-2.866205e-01 4.913191e-02 0.0
2.866205e-01 5.086809e-02 0.0
2.253960e-01 5.086809e-02 0.0
-2.253960e-01 4.913191e-02 0.0
1.641715e-01 5.086809e-02 0.0
-1.641715e-01 4.913191e-02 0.0
-1.029470e-01 4.913191e-02 0.0
1.030421e-01 5.090783e-02 0.0
-4.185806e-02 4.908435e-02 0.0
-3.464447e-01 8.195458e-02 0.0
3.464447e-01 1.804542e-02 0.0
-2.852202e-01 1.804542e-02 0.0
2.852202e-01 8.195458e-02 0.0
-2.239957e-01 1.804542e-02 0.0
2.239957e-01 8.195458e-02 0.0
1.627713e-01 8.195458e-02 0.0
-1.627713e-01 1.804542e-02 0.0
-1.015468e-01 1.804542e-02 0.0
1.032159e-01 8.276777e-02 0.0
-4.212623e-02 1.727155e-02 0.0
-4.084979e-01 1.829914e-02 0.0
4.084979e-01 8.170086e-02 0.0
1.017861e-01 1.775284e-02 0.0
-1.021723e-01 8.155023e-02 0.0
1.633968e-01 1.844977e-02 0.0
-1.633968e-01 8.155023e-02 0.0
2.246213e-01 1.844977e-02 0.0
-2.246213e-01 8.155023e-02 0.0
-2.858458e-01 8.155023e-02 0.0
2.858458e-01 1.844977e-02 0.0
-3.461891e-01 1.786060e-02 0.0
3.461891e-01 8.213940e-02 0.0
3.679089e-01 8.199964e-02 0.0
-3.679089e-01 1.800036e-02 0.0
-3.060946e-01 8.168253e-02 0.0
3.060946e-01 1.831747e-02 0.0
2.448701e-01 1.831747e-02 0.0
-2.448701e-01 8.168253e-02 0.0
1.836457e-01 1.831747e-02 0.0
-1.836457e-01 8.168253e-02 0.0
1.223752e-01 1.823450e-02 0.0
-1.224212e-01 8.168253e-02 0.0
-6.145630e-02 8.183270e-02 0.0
-4.148626e-02 8.203992e-02 0.0
-3.117082e-03 4.988877e-02 0.0
4.277360e-01 8.225314e-02 0.0
-4.277360e-01 1.774686e-02 0.0
6.044542e-02 5.115009e-02 0.0
-4.278051e-01 5.012801e-02 0.0
4.278051e-01 4.987199e-02 0.0
-3.666191e-01 5.022566e-02 0.0
3.666191e-01 4.977434e-02 0.0
3.055772e-01 4.949426e-02 0.0
-2.443601e-01 4.991831e-02 0.0
2.443601e-01 5.008169e-02 0.0
-1.831356e-01 4.991831e-02 0.0
-1.219111e-01 4.991831e-02 0.0
1.219269e-01 5.008831e-02 0.0
-6.071305e-02 4.990863e-02 0.0
1.831356e-01 5.008169e-02 0.0
-3.055772e-01 5.050574e-02 0.0
4.887154e-01 7.233570e-02 0.0
4.899489e-01 5.000103e-02 0.0
-4.887154e-01 2.766430e-02 0.0
-4.899489e-01 4.999897e-02 0.0
4.887122e-01 2.766518e-02 0.0
-4.887122e-01 7.233482e-02 0.0
-6.209327e-02 1.806736e-02 0.0
-1.237337e-01 1.790815e-02 0.0
1.232990e-01 8.193607e-02 0.0
-1.849582e-01 1.790815e-02 0.0
2.461826e-01 8.209185e-02 0.0
-2.461826e-01 1.790815e-02 0.0
1.849582e-01 8.209185e-02 0.0
3.068304e-01 8.258429e-02 0.0
-3.068304e-01 1.741571e-02 0.0
3.686316e-01 1.790815e-02 0.0
-3.686316e-01 8.209185e-02 0.0
4.277622e-01 1.865132e-02 0.0
-4.277622e-01 8.134868e-02 0.0
-4.635022e-01 5.809439e-02 0.0
-4.630338e-01 4.194931e-02 0.0
4.635022e-01 4.190561e-02 0.0
4.630338e-01 5.805069e-02 0.0
6.267174e-02 8.300119e-02 0.0
6.263812e-02 1.678557e-02 0.0
1.559147e-02 1.695358e-02 0.0
1.559147e-02 8.304642e-02 0.0
-4.023754e-01 3.525017e-02 0.0
4.023754e-01 6.474983e-02 0.0
4.701175e-01 1.147562e-02 0.0
-4.701175e-01 8.852438e-02 0.0
4.701208e-01 8.852526e-02 0.0
-4.701208e-01 1.147474e-02 0.0
9.212836e-02 3.459868e-02 0.0
-9.617401e-02 6.440532e-02 0.0
1.573985e-01 3.559468e-02 0.0
-1.573985e-01 6.440532e-02 0.0
-2.186230e-01 6.440532e-02 0.0
2.186230e-01 3.559468e-02 0.0
-2.798475e-01 6.440532e-02 0.0
2.798475e-01 3.559468e-02 0.0
3.373320e-01 6.480231e-02 0.0
-3.373320e-01 3.519769e-02 0.0
-3.130802e-02 6.492349e-02 0.0
-1.872174e-03 1.766642e-02 0.0
-1.860063e-03 8.228941e-02 0.0
3.734848e-01 6.494834e-02 0.0
-3.734848e-01 3.505166e-02 0.0
3.125134e-01 3.430379e-02 0.0
[...]
POINT_DATA 379
VECTORS deformation double
0.000000e+00 0.000000e+00 0.0
-1.174937e-03 -1.577138e-02 0.0
1.174933e-03 -1.577138e-02 0.0
0.000000e+00 0.000000e+00 0.0
-4.848290e-05 -2.678658e-05 0.0
-9.466645e-05 -5.890540e-05 0.0
-1.393206e-04 -1.069808e-04 0.0
-1.844737e-04 -1.752073e-04 0.0
-2.285328e-04 -2.618675e-04 0.0
-2.689440e-04 -3.655286e-04 0.0
-3.112101e-04 -4.856848e-04 0.0
-3.519940e-04 -6.230816e-04 0.0
-3.917315e-04 -7.769366e-04 0.0
-4.308482e-04 -9.469266e-04 0.0
-4.692547e-04 -1.133170e-03 0.0
-5.033971e-04 -1.333627e-03 0.0
-5.402747e-04 -1.548118e-03 0.0
-5.760445e-04 -1.778602e-03 0.0
-6.074865e-04 -2.022209e-03 0.0
-6.413518e-04 -2.278637e-03 0.0
-6.740981e-04 -2.549721e-03 0.0
-7.028042e-04 -2.832789e-03 0.0
-7.336358e-04 -3.127553e-03 0.0
-7.633492e-04 -3.435641e-03 0.0
-7.893082e-04 -3.754597e-03 0.0
-8.168697e-04 -4.084148e-03 0.0
-8.434166e-04 -4.425222e-03 0.0
-8.679506e-04 -4.776506e-03 0.0
-8.921589e-04 -5.137822e-03 0.0
-9.153234e-04 -5.508440e-03 0.0
-9.377163e-04 -5.889488e-03 0.0
-9.588031e-04 -6.278150e-03 0.0
-9.788895e-04 -6.675627e-03 0.0
-9.981181e-04 -7.081129e-03 0.0
-1.016534e-03 -7.494596e-03 0.0
-1.032509e-03 -7.914731e-03 0.0
-1.049099e-03 -8.341463e-03 0.0
-1.064710e-03 -8.775161e-03 0.0
-1.077976e-03 -9.214467e-03 0.0
-1.091571e-03 -9.659191e-03 0.0
-1.104159e-03 -1.010957e-02 0.0
-1.114678e-03 -1.056442e-02 0.0
-1.125257e-03 -1.102353e-02 0.0
-1.134841e-03 -1.148702e-02 0.0
-1.142647e-03 -1.195387e-02 0.0
-1.150259e-03 -1.242381e-02 0.0
-1.156811e-03 -1.289689e-02 0.0
-1.161819e-03 -1.337211e-02 0.0
-1.166365e-03 -1.384931e-02 0.0
-1.169797e-03 -1.432815e-02 0.0
-1.172377e-03 -1.480833e-02 0.0
-1.174058e-03 -1.528929e-02 0.0
-9.128001e-04 -1.577118e-02 0.0
-6.514933e-04 -1.577076e-02 0.0
-3.907105e-04 -1.577034e-02 0.0
-1.301938e-04 -1.577013e-02 0.0
1.301931e-04 -1.577013e-02 0.0
3.907093e-04 -1.577034e-02 0.0
6.514912e-04 -1.577075e-02 0.0
9.127971e-04 -1.577118e-02 0.0
1.174054e-03 -1.528928e-02 0.0
1.172371e-03 -1.480833e-02 0.0
1.169792e-03 -1.432816e-02 0.0
1.166332e-03 -1.384932e-02 0.0
1.161870e-03 -1.337211e-02 0.0
1.156765e-03 -1.289689e-02 0.0
1.150338e-03 -1.242390e-02 0.0
1.142991e-03 -1.195379e-02 0.0
1.134654e-03 -1.148687e-02 0.0
1.125216e-03 -1.102358e-02 0.0
1.114683e-03 -1.056448e-02 0.0
1.104206e-03 -1.010960e-02 0.0
1.091597e-03 -9.659154e-03 0.0
1.077971e-03 -9.214485e-03 0.0
1.064756e-03 -8.775181e-03 0.0
1.049118e-03 -8.341411e-03 0.0
1.032482e-03 -7.914748e-03 0.0
1.016557e-03 -7.494589e-03 0.0
9.981085e-04 -7.081087e-03 0.0
9.786366e-04 -6.675651e-03 0.0
9.588775e-04 -6.278381e-03 0.0
9.377115e-04 -5.889159e-03 0.0
9.150674e-04 -5.508293e-03 0.0
8.920442e-04 -5.137959e-03 0.0
8.678538e-04 -4.776587e-03 0.0
8.433500e-04 -4.425256e-03 0.0
8.169663e-04 -4.084186e-03 0.0
7.893309e-04 -3.754575e-03 0.0
7.632836e-04 -3.435601e-03 0.0
7.336399e-04 -3.127645e-03 0.0
7.028720e-04 -2.832745e-03 0.0
6.740509e-04 -2.549680e-03 0.0
6.413673e-04 -2.278737e-03 0.0
6.075682e-04 -2.022161e-03 0.0
5.760040e-04 -1.778558e-03 0.0
5.403109e-04 -1.548217e-03 0.0
5.035057e-04 -1.333537e-03 0.0
4.692218e-04 -1.132936e-03 0.0
4.305338e-04 -9.466936e-04 0.0
3.906535e-04 -7.775043e-04 0.0
3.534831e-04 -6.236218e-04 0.0
3.114759e-04 -4.851420e-04 0.0
2.684893e-04 -3.654924e-04 0.0
2.288760e-04 -2.619713e-04 0.0
1.841341e-04 -1.751199e-04 0.0
1.394257e-04 -1.069069e-04 0.0
9.467346e-05 -5.889880e-05 0.0
4.848120e-05 -2.679185e-05 0.0
0.000000e+00 0.000000e+00 0.0
0.000000e+00 0.000000e+00 0.0
0.000000e+00 0.000000e+00 0.0
0.000000e+00 0.000000e+00 0.0
0.000000e+00 0.000000e+00 0.0
0.000000e+00 0.000000e+00 0.0
0.000000e+00 0.000000e+00 0.0
0.000000e+00 0.000000e+00 0.0
8.915254e-09 -1.457563e-02 0.0
1.147817e-07 -5.772826e-05 0.0
-8.567834e-06 -1.313755e-02 0.0
1.922161e-06 -2.888506e-04 0.0
2.352970e-05 -6.772388e-04 0.0
-7.272621e-05 -1.172036e-02 0.0
-3.221371e-06 -1.210678e-03 0.0
7.194955e-06 -1.033618e-02 0.0
-3.832578e-06 -1.878906e-03 0.0
6.963404e-06 -8.992189e-03 0.0
6.649127e-06 -7.700142e-03 0.0
-4.457597e-06 -2.670909e-03 0.0
-5.044759e-06 -3.575941e-03 0.0
1.282790e-05 -6.486207e-03 0.0
-1.133721e-05 -4.566056e-03 0.0
4.283376e-07 -5.479900e-03 0.0
-2.615360e-05 -1.724465e-05 0.0
5.109672e-04 -1.509910e-02 0.0
-5.108738e-04 -1.509875e-02 0.0
2.616373e-05 -1.729638e-05 0.0
1.212126e-07 -1.520943e-02 0.0
-1.710564e-09 -8.508178e-06 0.0
-5.605363e-05 -1.569069e-04 0.0
3.585522e-04 -1.383981e-02 0.0
2.548961e-04 -4.072623e-03 0.0
2.288035e-04 -3.114934e-03 0.0
-3.112526e-04 -7.072940e-03 0.0
-3.273344e-04 -8.334676e-03 0.0
1.999530e-04 -2.264764e-03 0.0
-3.406281e-04 -9.653686e-03 0.0
1.683511e-04 -1.532972e-03 0.0
3.589225e-04 -1.242088e-02 0.0
-9.697995e-05 -4.675928e-04 0.0
1.339376e-04 -9.302420e-04 0.0
-3.511606e-04 -1.101930e-02 0.0
1.003264e-04 -4.633154e-04 0.0
-3.739216e-04 -1.243740e-02 0.0
3.658568e-04 -1.103547e-02 0.0
-1.389327e-04 -9.241624e-04 0.0
3.549150e-04 -9.669401e-03 0.0
-1.748638e-04 -1.525419e-03 0.0
-2.078029e-04 -2.255759e-03 0.0
3.411170e-04 -8.349807e-03 0.0
3.244222e-04 -7.087329e-03 0.0
-2.378834e-04 -3.104597e-03 0.0
-2.652223e-04 -4.060621e-03 0.0
-3.890098e-04 -1.387052e-02 0.0
5.972005e-05 -1.523587e-04 0.0
-3.465761e-04 -5.966871e-03 0.0
3.531966e-04 -5.971171e-03 0.0
3.048956e-04 -5.036097e-03 0.0
-3.049053e-04 -5.036012e-03 0.0
-6.040796e-05 -7.082836e-05 0.0
5.951674e-04 -1.450196e-02 0.0
-5.951787e-04 -1.450197e-02 0.0
6.023660e-05 -7.088114e-05 0.0
-6.300125e-04 -6.474580e-03 0.0
4.035599e-04 -3.583636e-03 0.0
-5.326795e-04 -7.697615e-03 0.0
3.577309e-04 -2.678600e-03 0.0
-5.571553e-04 -8.989007e-03 0.0
3.073729e-04 -1.886548e-03 0.0
-5.769918e-04 -1.033239e-02 0.0
2.524330e-04 -1.218241e-03 0.0
-1.370624e-04 -2.970286e-04 0.0
6.416151e-04 -1.313202e-02 0.0
1.928431e-04 -6.841770e-04 0.0
-5.922727e-04 -1.171700e-02 0.0
-2.388789e-04 -6.831011e-04 0.0
7.350262e-04 -1.172843e-02 0.0
-6.029617e-04 -1.313228e-02 0.0
1.286594e-04 -2.962196e-04 0.0
5.769962e-04 -1.033239e-02 0.0
-2.523808e-04 -1.218227e-03 0.0
-3.074029e-04 -1.886519e-03 0.0
5.571421e-04 -8.988996e-03 0.0
-3.577575e-04 -2.678577e-03 0.0
5.326898e-04 -7.697609e-03 0.0
-4.035552e-04 -3.583633e-03 0.0
5.990245e-04 -6.474279e-03 0.0
-5.236216e-04 -4.576081e-03 0.0
5.191409e-04 -4.577308e-03 0.0
-2.019246e-05 -7.244511e-06 0.0
8.047501e-04 -1.542302e-02 0.0
-8.047428e-04 -1.542299e-02 0.0
2.019633e-05 -7.254109e-06 0.0
-4.568273e-04 -5.516027e-03 0.0
4.900731e-04 -5.506428e-03 0.0
-2.603429e-04 -1.545786e-02 0.0
5.960122e-06 -4.746246e-07 0.0
2.603424e-04 -1.545786e-02 0.0
-5.961333e-06 -4.698264e-07 0.0
2.893424e-06 -1.887896e-04 0.0
-1.591313e-05 -1.364169e-02 0.0
1.311661e-04 -2.055505e-04 0.0
-7.445018e-04 -1.359738e-02 0.0
-3.855369e-05 -1.217908e-02 0.0
1.134696e-05 -5.342864e-04 0.0
-7.976640e-06 -1.011339e-03 0.0
1.937161e-05 -1.080884e-02 0.0
1.880138e-05 -9.449474e-03 0.0
-9.650512e-06 -1.634531e-03 0.0
1.804009e-05 -8.138347e-03 0.0
-1.136858e-05 -2.385129e-03 0.0
-1.294675e-05 -3.252461e-03 0.0
1.787165e-05 -6.887971e-03 0.0
-1.516945e-05 -4.223289e-03 0.0
2.114063e-04 -5.435689e-04 0.0
-7.320811e-04 -1.217493e-02 0.0
-2.862394e-04 -1.031403e-03 0.0
7.152165e-04 -1.077936e-02 0.0
-3.558133e-04 -1.656878e-03 0.0
6.926765e-04 -9.421499e-03 0.0
6.645671e-04 -8.112177e-03 0.0
-4.194685e-04 -2.409703e-03 0.0
-4.775062e-04 -3.279033e-03 0.0
6.476045e-04 -6.895390e-03 0.0
-5.416913e-04 -4.224147e-03 0.0
-1.288332e-04 -2.019495e-04 0.0
7.374718e-04 -1.361704e-02 0.0
-6.362953e-04 -6.866839e-03 0.0
4.709460e-04 -3.269478e-03 0.0
-6.564125e-04 -8.125202e-03 0.0
4.135859e-04 -2.401271e-03 0.0
-6.841196e-04 -9.435083e-03 0.0
3.506926e-04 -1.649683e-03 0.0
2.822851e-04 -1.025394e-03 0.0
-7.062576e-04 -1.079335e-02 0.0
-2.138401e-04 -5.457137e-04 0.0
7.360431e-04 -1.216909e-02 0.0
7.374748e-04 -1.267121e-02 0.0
-1.851950e-04 -4.079607e-04 0.0
2.603211e-04 -8.488124e-04 0.0
-7.151690e-04 -1.125136e-02 0.0
-6.947352e-04 -9.879467e-03 0.0
3.307269e-04 -1.428705e-03 0.0
-6.687107e-04 -8.552388e-03 0.0
3.956701e-04 -2.139355e-03 0.0
-6.385859e-04 -7.279996e-03 0.0
4.550484e-04 -2.970179e-03 0.0
5.112037e-04 -3.906252e-03 0.0
5.307794e-04 -4.234639e-03 0.0
-1.860673e-06 -4.889001e-03 0.0
7.526974e-04 -1.406796e-02 0.0
-1.048233e-04 -1.289008e-04 0.0
2.149251e-05 -6.057000e-03 0.0
3.771526e-07 -1.196249e-04 0.0
-2.984387e-06 -1.406897e-02 0.0
1.465124e-06 -4.072511e-04 0.0
-5.152810e-06 -1.264007e-02 0.0
-1.147761e-05 -1.123788e-02 0.0
-8.678674e-07 -1.427305e-03 0.0
1.777688e-06 -9.865955e-03 0.0
-1.009584e-06 -2.139567e-03 0.0
-1.160797e-06 -2.971897e-03 0.0
1.745203e-06 -7.267453e-03 0.0
-1.480911e-06 -3.913045e-03 0.0
1.716657e-06 -8.538738e-03 0.0
3.753982e-06 -8.457310e-04 0.0
5.235570e-04 -1.550421e-02 0.0
2.414201e-08 -1.553311e-02 0.0
-1.002203e-05 -2.183512e-06 0.0
-4.835798e-10 5.031167e-07 0.0
-5.235376e-04 -1.550414e-02 0.0
1.002473e-05 -2.189968e-06 0.0
-5.123028e-04 -3.895987e-03 0.0
-4.597814e-04 -2.951327e-03 0.0
6.425789e-04 -7.298737e-03 0.0
-3.995227e-04 -2.122980e-03 0.0
7.042132e-04 -9.908497e-03 0.0
-3.335967e-04 -1.415046e-03 0.0
6.779634e-04 -8.580353e-03 0.0
7.359595e-04 -1.126822e-02 0.0
-2.658892e-04 -8.431760e-04 0.0
-7.398135e-04 -1.268792e-02 0.0
1.846881e-04 -4.034562e-04 0.0
-7.315790e-04 -1.406854e-02 0.0
1.016431e-04 -1.282996e-04 0.0
1.245520e-05 -2.721575e-05 0.0
-1.252349e-05 -2.804721e-05 0.0
-1.895238e-04 -1.490922e-02 0.0
1.884981e-04 -1.489817e-02 0.0
6.257623e-04 -6.104486e-03 0.0
-6.301407e-04 -6.103859e-03 0.0
-5.930826e-04 -5.228307e-03 0.0
5.931439e-04 -5.228456e-03 0.0
-6.392042e-05 -2.221453e-04 0.0
3.425214e-04 -1.347307e-02 0.0
-9.032962e-04 -1.506561e-02 0.0
5.207060e-05 -3.103699e-05 0.0
9.033135e-04 -1.506568e-02 0.0
-5.207519e-05 -3.102733e-05 0.0
-3.009795e-04 -6.672667e-03 0.0
2.175262e-04 -3.356420e-03 0.0
-2.979826e-04 -7.997465e-03 0.0
1.915987e-04 -2.476973e-03 0.0
1.631492e-04 -1.713068e-03 0.0
-3.109203e-04 -9.302464e-03 0.0
1.321121e-04 -1.075435e-03 0.0
-3.213112e-04 -1.065689e-02 0.0
3.378047e-04 -1.196404e-02 0.0
-1.034650e-04 -6.010627e-04 0.0
2.508765e-04 -4.402043e-03 0.0
-5.670887e-04 -4.915902e-03 0.0
5.663220e-04 -4.916198e-03 0.0
3.449027e-04 -1.279974e-02 0.0
-8.242794e-05 -3.691962e-04 0.0
-3.550868e-04 -1.139622e-02 0.0
1.244861e-04 -7.907969e-04 0.0
1.485774e-04 -1.359855e-03 0.0
-3.208953e-04 -1.001237e-02 0.0
-3.091910e-04 -8.679927e-03 0.0
1.787924e-04 -2.058396e-03 0.0
2.064236e-04 -2.878172e-03 0.0
-2.952067e-04 -7.401853e-03 0.0
2.319000e-04 -3.807473e-03 0.0
-8.692442e-05 -5.781710e-03 0.0
1.605149e-05 -6.509043e-06 0.0
-1.016627e-03 -1.556364e-02 0.0
1.016626e-03 -1.556365e-02 0.0
-1.605043e-05 -6.504753e-06 0.0
6.458291e-04 -5.765434e-03 0.0
-6.546422e-04 -5.786481e-03 0.0
-2.368685e-04 -3.803136e-03 0.0
-2.115387e-04 -2.872454e-03 0.0
3.019268e-04 -7.408557e-03 0.0
-1.831859e-04 -2.053450e-03 0.0
3.172045e-04 -8.688605e-03 0.0
3.291863e-04 -1.002136e-02 0.0
-1.521950e-04 -1.355733e-03 0.0
3.483971e-04 -1.149118e-02 0.0
-1.195031e-04 -7.569535e-04 0.0
8.250116e-05 -3.676546e-04 0.0
-3.461349e-04 -1.280650e-02 0.0
2.538350e-04 -5.329005e-03 0.0
-2.393179e-04 -5.303641e-03 0.0
-3.670600e-04 -1.203927e-02 0.0
1.102330e-04 -5.785149e-04 0.0
3.097278e-04 -6.679740e-03 0.0
-2.279843e-04 -3.356274e-03 0.0
-2.008350e-04 -2.476859e-03 0.0
3.121676e-04 -7.997899e-03 0.0
3.257234e-04 -9.302894e-03 0.0
-1.710447e-04 -1.712995e-03 0.0
-1.385658e-04 -1.075399e-03 0.0
3.366125e-04 -1.065733e-02 0.0
-2.642013e-04 -4.398043e-03 0.0
-3.520302e-04 -1.347536e-02 0.0
6.567596e-05 -2.219614e-04 0.0
-2.635255e-04 -4.736242e-03 0.0
2.580231e-04 -4.736926e-03 0.0
3.205337e-04 -6.292930e-03 0.0
-2.726272e-04 -6.270657e-03 0.0
2.285187e-04 -5.691800e-03 0.0
3.407347e-04 -1.421060e-02 0.0
-4.233207e-05 -1.022110e-04 0.0
4.275242e-05 -1.012693e-04 0.0
-3.437900e-04 -1.421685e-02 0.0
-7.252519e-05 -5.369437e-05 0.0
8.659840e-04 -1.474582e-02 0.0
-8.659711e-04 -1.474576e-02 0.0
7.250912e-05 -5.367720e-05 0.0
2.113359e-06 -5.176678e-03 0.0
