# vtk DataFile Version 2.0
Simplicial Mesh Example
ASCII
DATASET UNSTRUCTURED_GRID
POINTS 379 double
-5.000000e-01 0.000000e+00 0.0
5.000000e-01 0.000000e+00 0.0
5.000000e-01 1.000000e-01 0.0
-5.000000e-01 1.000000e-01 0.0
-4.795918e-01 0.000000e+00 0.0
-4.591837e-01 0.000000e+00 0.0
-4.387755e-01 0.000000e+00 0.0
-4.183673e-01 0.000000e+00 0.0
-3.979592e-01 0.000000e+00 0.0
-3.775510e-01 0.000000e+00 0.0
-3.571429e-01 0.000000e+00 0.0
-3.367347e-01 0.000000e+00 0.0
-3.163265e-01 0.000000e+00 0.0
-2.959184e-01 0.000000e+00 0.0
-2.755102e-01 0.000000e+00 0.0
-2.551020e-01 0.000000e+00 0.0
-2.346939e-01 0.000000e+00 0.0
-2.142857e-01 0.000000e+00 0.0
-1.938776e-01 0.000000e+00 0.0
-1.734694e-01 0.000000e+00 0.0
-1.530612e-01 0.000000e+00 0.0
-1.326531e-01 0.000000e+00 0.0
-1.122449e-01 0.000000e+00 0.0
-9.183673e-02 0.000000e+00 0.0
-7.142857e-02 0.000000e+00 0.0
-5.102041e-02 0.000000e+00 0.0
-3.061224e-02 0.000000e+00 0.0
-1.020408e-02 0.000000e+00 0.0
1.020408e-02 0.000000e+00 0.0
3.061224e-02 0.000000e+00 0.0
5.102041e-02 0.000000e+00 0.0
7.142857e-02 0.000000e+00 0.0
9.183673e-02 0.000000e+00 0.0
1.122449e-01 0.000000e+00 0.0
1.326531e-01 0.000000e+00 0.0
1.530612e-01 0.000000e+00 0.0
1.734694e-01 0.000000e+00 0.0
1.938776e-01 0.000000e+00 0.0
2.142857e-01 0.000000e+00 0.0
2.346939e-01 0.000000e+00 0.0
2.551020e-01 0.000000e+00 0.0
2.755102e-01 0.000000e+00 0.0
2.959184e-01 0.000000e+00 0.0
3.163265e-01 0.000000e+00 0.0
3.367347e-01 0.000000e+00 0.0
3.571429e-01 0.000000e+00 0.0
3.775510e-01 0.000000e+00 0.0
3.979592e-01 0.000000e+00 0.0
4.183673e-01 0.000000e+00 0.0
4.387755e-01 0.000000e+00 0.0
4.591837e-01 0.000000e+00 0.0
4.795918e-01 0.000000e+00 0.0
5.000000e-01 1.111111e-02 0.0
5.000000e-01 2.222222e-02 0.0
5.000000e-01 3.333333e-02 0.0
5.000000e-01 4.444444e-02 0.0
5.000000e-01 5.555556e-02 0.0
5.000000e-01 6.666667e-02 0.0
5.000000e-01 7.777778e-02 0.0
5.000000e-01 8.888889e-02 0.0
4.795918e-01 1.000000e-01 0.0
4.591837e-01 1.000000e-01 0.0
4.387755e-01 1.000000e-01 0.0
4.183673e-01 1.000000e-01 0.0
3.979592e-01 1.000000e-01 0.0
3.775510e-01 1.000000e-01 0.0
3.571429e-01 1.000000e-01 0.0
3.367347e-01 1.000000e-01 0.0
3.163265e-01 1.000000e-01 0.0
2.959184e-01 1.000000e-01 0.0
2.755102e-01 1.000000e-01 0.0
2.551020e-01 1.000000e-01 0.0
2.346939e-01 1.000000e-01 0.0
2.142857e-01 1.000000e-01 0.0
1.938776e-01 1.000000e-01 0.0
1.734694e-01 1.000000e-01 0.0
1.530612e-01 1.000000e-01 0.0
1.326531e-01 1.000000e-01 0.0
1.122449e-01 1.000000e-01 0.0
9.183673e-02 1.000000e-01 0.0
7.142857e-02 1.000000e-01 0.0
5.102041e-02 1.000000e-01 0.0
3.061224e-02 1.000000e-01 0.0
1.020408e-02 1.000000e-01 0.0
-1.020408e-02 1.000000e-01 0.0
-3.061224e-02 1.000000e-01 0.0
-5.102041e-02 1.000000e-01 0.0
-7.142857e-02 1.000000e-01 0.0
-9.183673e-02 1.000000e-01 0.0
-1.122449e-01 1.000000e-01 0.0
-1.326531e-01 1.000000e-01 0.0
-1.530612e-01 1.000000e-01 0.0
-1.734694e-01 1.000000e-01 0.0
-1.938776e-01 1.000000e-01 0.0
-2.142857e-01 1.000000e-01 0.0
-2.346939e-01 1.000000e-01 0.0
-2.551020e-01 1.000000e-01 0.0
-2.755102e-01 1.000000e-01 0.0
-2.959184e-01 1.000000e-01 0.0
-3.163265e-01 1.000000e-01 0.0
-3.367347e-01 1.000000e-01 0.0
-3.571429e-01 1.000000e-01 0.0
-3.775510e-01 1.000000e-01 0.0
-3.979592e-01 1.000000e-01 0.0
-4.183673e-01 1.000000e-01 0.0
-4.387755e-01 1.000000e-01 0.0
-4.591837e-01 1.000000e-01 0.0
-4.795918e-01 1.000000e-01 0.0
-5.000000e-01 8.888889e-02 0.0
-5.000000e-01 7.777778e-02 0.0
-5.000000e-01 6.666667e-02 0.0
-5.000000e-01 5.555556e-02 0.0
-5.000000e-01 4.444444e-02 0.0
-5.000000e-01 3.333333e-02 0.0
-5.000000e-01 2.222222e-02 0.0
-5.000000e-01 1.111111e-02 0.0
4.493449e-01 5.000000e-02 0.0
-4.493449e-01 5.000000e-02 0.0
3.880136e-01 4.962932e-02 0.0
-3.880136e-01 5.037068e-02 0.0
-3.267270e-01 5.319893e-02 0.0
3.267270e-01 4.680107e-02 0.0
-2.655467e-01 4.967431e-02 0.0
2.655467e-01 5.032569e-02 0.0
-2.043222e-01 4.967431e-02 0.0
2.043222e-01 5.032569e-02 0.0
1.430977e-01 5.032569e-02 0.0
-1.430977e-01 4.967431e-02 0.0
-8.187322e-02 4.967431e-02 0.0
8.267204e-02 5.065948e-02 0.0
-2.164368e-02 4.933263e-02 0.0
2.960204e-02 5.000000e-02 0.0
-4.715508e-01 2.818680e-02 0.0
4.715508e-01 7.181320e-02 0.0
4.715360e-01 2.819080e-02 0.0
-4.715360e-01 7.180920e-02 0.0
4.762296e-01 5.000515e-02 0.0
-4.762296e-01 4.999485e-02 0.0
-4.180356e-01 3.460531e-02 0.0
4.180356e-01 6.539469e-02 0.0
-5.102041e-02 6.562890e-02 0.0
-1.122449e-01 6.562890e-02 0.0
1.122449e-01 3.437110e-02 0.0
1.734694e-01 3.437110e-02 0.0
-1.734694e-01 6.562890e-02 0.0
2.346939e-01 3.437110e-02 0.0
-2.346939e-01 6.562890e-02 0.0
3.571429e-01 6.562890e-02 0.0
-3.571429e-01 3.437110e-02 0.0
-2.959184e-01 6.562890e-02 0.0
2.959184e-01 3.437110e-02 0.0
-3.578550e-01 6.627666e-02 0.0
3.578550e-01 3.372334e-02 0.0
2.966305e-01 6.627666e-02 0.0
-2.966305e-01 3.372334e-02 0.0
2.354060e-01 6.627666e-02 0.0
-2.354060e-01 3.372334e-02 0.0
-1.741815e-01 3.372334e-02 0.0
1.741815e-01 6.627666e-02 0.0
1.129570e-01 6.627666e-02 0.0
-1.129570e-01 3.372334e-02 0.0
-5.175568e-02 3.371284e-02 0.0
4.193433e-01 3.330203e-02 0.0
-4.193433e-01 6.669797e-02 0.0
5.561735e-02 3.155664e-02 0.0
5.581762e-02 6.876666e-02 0.0
5.087868e-03 6.723488e-02 0.0
5.087868e-03 3.276512e-02 0.0
-4.462058e-01 2.454646e-02 0.0
4.462058e-01 7.545354e-02 0.0
4.462058e-01 2.454646e-02 0.0
-4.462058e-01 7.545354e-02 0.0
8.185885e-02 1.744226e-02 0.0
-8.163265e-02 7.604123e-02 0.0
1.428571e-01 2.395877e-02 0.0
-1.428571e-01 7.604123e-02 0.0
2.040816e-01 2.395877e-02 0.0
-2.040816e-01 7.604123e-02 0.0
2.653061e-01 2.395877e-02 0.0
-2.653061e-01 7.604123e-02 0.0
-3.877397e-01 2.229049e-02 0.0
3.877397e-01 7.770951e-02 0.0
-3.265306e-01 7.604123e-02 0.0
3.265306e-01 2.395877e-02 0.0
-3.270067e-01 1.770059e-02 0.0
3.270067e-01 8.229941e-02 0.0
3.877551e-01 2.395877e-02 0.0
-3.877551e-01 7.604123e-02 0.0
2.653061e-01 7.604123e-02 0.0
-2.653061e-01 2.395877e-02 0.0
-2.040816e-01 2.395877e-02 0.0
2.040816e-01 7.604123e-02 0.0
-1.428571e-01 2.395877e-02 0.0
1.428571e-01 7.604123e-02 0.0
-8.163265e-02 2.395877e-02 0.0
8.186027e-02 8.095500e-02 0.0
-2.133125e-02 1.932044e-02 0.0
-2.125858e-02 8.041451e-02 0.0
-4.852691e-01 1.569026e-02 0.0
4.852691e-01 8.430974e-02 0.0
4.852675e-01 1.569066e-02 0.0
-4.852675e-01 8.430934e-02 0.0
3.144290e-02 2.502699e-02 0.0
3.088244e-02 7.680137e-02 0.0
4.867574e-01 3.888889e-02 0.0
-4.867574e-01 6.111111e-02 0.0
4.867574e-01 6.111111e-02 0.0
-4.867574e-01 3.888889e-02 0.0
-4.095899e-01 5.068522e-02 0.0
4.095899e-01 4.931478e-02 0.0
-4.076578e-01 8.200578e-02 0.0
4.076578e-01 1.799422e-02 0.0
3.466876e-01 4.831309e-02 0.0
-3.466876e-01 5.168691e-02 0.0
-2.866205e-01 4.913191e-02 0.0
2.866205e-01 5.086809e-02 0.0
2.253960e-01 5.086809e-02 0.0
-2.253960e-01 4.913191e-02 0.0
1.641715e-01 5.086809e-02 0.0
-1.641715e-01 4.913191e-02 0.0
-1.029470e-01 4.913191e-02 0.0
1.030421e-01 5.090783e-02 0.0
-4.185806e-02 4.908435e-02 0.0
-3.464447e-01 8.195458e-02 0.0
3.464447e-01 1.804542e-02 0.0
-2.852202e-01 1.804542e-02 0.0
2.852202e-01 8.195458e-02 0.0
-2.239957e-01 1.804542e-02 0.0
2.239957e-01 8.195458e-02 0.0
1.627713e-01 8.195458e-02 0.0
-1.627713e-01 1.804542e-02 0.0
-1.015468e-01 1.804542e-02 0.0
1.032159e-01 8.276777e-02 0.0
-4.212623e-02 1.727155e-02 0.0
-4.084979e-01 1.829914e-02 0.0
4.084979e-01 8.170086e-02 0.0
1.017861e-01 1.775284e-02 0.0
-1.021723e-01 8.155023e-02 0.0
1.633968e-01 1.844977e-02 0.0
-1.633968e-01 8.155023e-02 0.0
2.246213e-01 1.844977e-02 0.0
-2.246213e-01 8.155023e-02 0.0
-2.858458e-01 8.155023e-02 0.0
2.858458e-01 1.844977e-02 0.0
-3.461891e-01 1.786060e-02 0.0
3.461891e-01 8.213940e-02 0.0
3.679089e-01 8.199964e-02 0.0
-3.679089e-01 1.800036e-02 0.0
-3.060946e-01 8.168253e-02 0.0
3.060946e-01 1.831747e-02 0.0
2.448701e-01 1.831747e-02 0.0
-2.448701e-01 8.168253e-02 0.0
1.836457e-01 1.831747e-02 0.0
-1.836457e-01 8.168253e-02 0.0
1.223752e-01 1.823450e-02 0.0
-1.224212e-01 8.168253e-02 0.0
-6.145630e-02 8.183270e-02 0.0
-4.148626e-02 8.203992e-02 0.0
-3.117082e-03 4.988877e-02 0.0
4.277360e-01 8.225314e-02 0.0
-4.277360e-01 1.774686e-02 0.0
6.044542e-02 5.115009e-02 0.0
-4.278051e-01 5.012801e-02 0.0
4.278051e-01 4.987199e-02 0.0
-3.666191e-01 5.022566e-02 0.0
3.666191e-01 4.977434e-02 0.0
3.055772e-01 4.949426e-02 0.0
-2.443601e-01 4.991831e-02 0.0
2.443601e-01 5.008169e-02 0.0
-1.831356e-01 4.991831e-02 0.0
-1.219111e-01 4.991831e-02 0.0
1.219269e-01 5.008831e-02 0.0
-6.071305e-02 4.990863e-02 0.0
1.831356e-01 5.008169e-02 0.0
-3.055772e-01 5.050574e-02 0.0
4.887154e-01 7.233570e-02 0.0
4.899489e-01 5.000103e-02 0.0
-4.887154e-01 2.766430e-02 0.0
-4.899489e-01 4.999897e-02 0.0
4.887122e-01 2.766518e-02 0.0
-4.887122e-01 7.233482e-02 0.0
-6.209327e-02 1.806736e-02 0.0
-1.237337e-01 1.790815e-02 0.0
1.232990e-01 8.193607e-02 0.0
-1.849582e-01 1.790815e-02 0.0
2.461826e-01 8.209185e-02 0.0
-2.461826e-01 1.790815e-02 0.0
1.849582e-01 8.209185e-02 0.0
3.068304e-01 8.258429e-02 0.0
-3.068304e-01 1.741571e-02 0.0
3.686316e-01 1.790815e-02 0.0
-3.686316e-01 8.209185e-02 0.0
4.277622e-01 1.865132e-02 0.0
-4.277622e-01 8.134868e-02 0.0
-4.635022e-01 5.809439e-02 0.0
-4.630338e-01 4.194931e-02 0.0
4.635022e-01 4.190561e-02 0.0
4.630338e-01 5.805069e-02 0.0
6.267174e-02 8.300119e-02 0.0
6.263812e-02 1.678557e-02 0.0
1.559147e-02 1.695358e-02 0.0
1.559147e-02 8.304642e-02 0.0
-4.023754e-01 3.525017e-02 0.0
4.023754e-01 6.474983e-02 0.0
4.701175e-01 1.147562e-02 0.0
-4.701175e-01 8.852438e-02 0.0
4.701208e-01 8.852526e-02 0.0
-4.701208e-01 1.147474e-02 0.0
9.212836e-02 3.459868e-02 0.0
-9.617401e-02 6.440532e-02 0.0
1.573985e-01 3.559468e-02 0.0
-1.573985e-01 6.440532e-02 0.0
-2.186230e-01 6.440532e-02 0.0
2.186230e-01 3.559468e-02 0.0
-2.798475e-01 6.440532e-02 0.0
2.798475e-01 3.559468e-02 0.0
3.373320e-01 6.480231e-02 0.0
-3.373320e-01 3.519769e-02 0.0
-3.130802e-02 6.492349e-02 0.0
-1.872174e-03 1.766642e-02 0.0
-1.860063e-03 8.228941e-02 0.0
3.734848e-01 6.494834e-02 0.0
-3.734848e-01 3.505166e-02 0.0
3.125134e-01 3.430379e-02 0.0
[...]
POINT_DATA 379
VECTORS deformation double
0.000000e+00 0.000000e+00 0.0
1.761487e-02 2.606021e-01 0.0
-1.765193e-02 2.605992e-01 0.0
0.000000e+00 0.000000e+00 0.0
9.437847e-04 5.352007e-04 0.0
1.832244e-03 1.174009e-03 0.0
2.682836e-03 2.118796e-03 0.0
3.536703e-03 3.446773e-03 0.0
4.362143e-03 5.122147e-03 0.0
5.111721e-03 7.114516e-03 0.0
5.887540e-03 9.412082e-03 0.0
6.627851e-03 1.202446e-02 0.0
7.341135e-03 1.493405e-02 0.0
8.035141e-03 1.813193e-02 0.0
8.708398e-03 2.161685e-02 0.0
9.299525e-03 2.534914e-02 0.0
9.929311e-03 2.932423e-02 0.0
1.053063e-02 3.357105e-02 0.0
1.105022e-02 3.803683e-02 0.0
1.159963e-02 4.271445e-02 0.0
1.211910e-02 4.762787e-02 0.0
1.256376e-02 5.272890e-02 0.0
1.302962e-02 5.800968e-02 0.0
1.346577e-02 6.348817e-02 0.0
1.383587e-02 6.912224e-02 0.0
1.421651e-02 7.490440e-02 0.0
1.457114e-02 8.084151e-02 0.0
1.488821e-02 8.691080e-02 0.0
1.519005e-02 9.310544e-02 0.0
1.546904e-02 9.941235e-02 0.0
1.573098e-02 1.058410e-01 0.0
1.596885e-02 1.123536e-01 0.0
1.618782e-02 1.189632e-01 0.0
1.638970e-02 1.256574e-01 0.0
1.657562e-02 1.324325e-01 0.0
1.673074e-02 1.392719e-01 0.0
1.688485e-02 1.461736e-01 0.0
1.702294e-02 1.531374e-01 0.0
1.713440e-02 1.601482e-01 0.0
1.724177e-02 1.672027e-01 0.0
1.733401e-02 1.742988e-01 0.0
1.740562e-02 1.814246e-01 0.0
1.747103e-02 1.885772e-01 0.0
1.752349e-02 1.957536e-01 0.0
1.756092e-02 2.029449e-01 0.0
1.759107e-02 2.101482e-01 0.0
1.761107e-02 2.173598e-01 0.0
1.762223e-02 2.245740e-01 0.0
1.762733e-02 2.317891e-01 0.0
1.762685e-02 2.390010e-01 0.0
1.762424e-02 2.462080e-01 0.0
1.761914e-02 2.534092e-01 0.0
1.369932e-02 2.606014e-01 0.0
9.780429e-03 2.606027e-01 0.0
5.861566e-03 2.606028e-01 0.0
1.940706e-03 2.606030e-01 0.0
-1.978928e-03 2.606026e-01 0.0
-5.899465e-03 2.606020e-01 0.0
-9.817722e-03 2.606005e-01 0.0
-1.373627e-02 2.605990e-01 0.0
-1.765681e-02 2.534077e-01 0.0
-1.766356e-02 2.462073e-01 0.0
-1.766704e-02 2.390005e-01 0.0
-1.766832e-02 2.317888e-01 0.0
-1.766418e-02 2.245738e-01 0.0
-1.765320e-02 2.173599e-01 0.0
-1.763384e-02 2.101485e-01 0.0
-1.760497e-02 2.029445e-01 0.0
-1.756511e-02 1.957525e-01 0.0
-1.751329e-02 1.885775e-01 0.0
-1.744836e-02 1.814249e-01 0.0
-1.737714e-02 1.742988e-01 0.0
-1.728433e-02 1.672022e-01 0.0
-1.717656e-02 1.601483e-01 0.0
-1.706530e-02 1.531380e-01 0.0
-1.692662e-02 1.461734e-01 0.0
-1.677153e-02 1.392722e-01 0.0
-1.661644e-02 1.324327e-01 0.0
-1.643015e-02 1.256571e-01 0.0
-1.622564e-02 1.189632e-01 0.0
-1.601012e-02 1.123563e-01 0.0
-1.577140e-02 1.058369e-01 0.0
-1.550674e-02 9.941052e-02 0.0
-1.522939e-02 9.310755e-02 0.0
-1.492753e-02 8.691221e-02 0.0
-1.461056e-02 8.084244e-02 0.0
-1.425760e-02 7.490544e-02 0.0
-1.387516e-02 6.912218e-02 0.0
-1.350311e-02 6.348798e-02 0.0
-1.306700e-02 5.801156e-02 0.0
-1.260118e-02 5.272923e-02 0.0
-1.215338e-02 4.762899e-02 0.0
-1.163348e-02 4.271824e-02 0.0
-1.108389e-02 3.803835e-02 0.0
-1.056074e-02 3.357233e-02 0.0
-9.958804e-03 2.932740e-02 0.0
-9.328298e-03 2.534898e-02 0.0
-8.732964e-03 2.161429e-02 0.0
-8.052758e-03 1.812966e-02 0.0
-7.342747e-03 1.494615e-02 0.0
-6.673364e-03 1.203668e-02 0.0
-5.908773e-03 9.404658e-03 0.0
-5.117256e-03 7.116356e-03 0.0
-4.380239e-03 5.126778e-03 0.0
-3.539951e-03 3.447628e-03 0.0
-2.692122e-03 2.120036e-03 0.0
-1.837373e-03 1.176415e-03 0.0
-9.463446e-04 5.369149e-04 0.0
0.000000e+00 0.000000e+00 0.0
0.000000e+00 0.000000e+00 0.0
0.000000e+00 0.000000e+00 0.0
0.000000e+00 0.000000e+00 0.0
0.000000e+00 0.000000e+00 0.0
0.000000e+00 0.000000e+00 0.0
0.000000e+00 0.000000e+00 0.0
0.000000e+00 0.000000e+00 0.0
-2.017277e-05 2.427343e-01 0.0
-4.831282e-06 1.165538e-03 0.0
1.100665e-04 2.210515e-01 0.0
-4.320709e-05 5.657298e-03 0.0
-4.518278e-04 1.306961e-02 0.0
1.101742e-03 1.993964e-01 0.0
4.636545e-05 2.308671e-02 0.0
-1.335975e-04 1.779036e-01 0.0
5.414073e-05 3.544402e-02 0.0
-1.318084e-04 1.566597e-01 0.0
-1.284845e-04 1.358406e-01 0.0
6.143910e-05 4.985487e-02 0.0
6.945130e-05 6.601889e-02 0.0
-2.325847e-04 1.158759e-01 0.0
1.757945e-04 8.333383e-02 0.0
-2.529746e-05 9.897874e-02 0.0
5.022570e-04 3.603252e-04 0.0
-7.715379e-03 2.505737e-01 0.0
7.674944e-03 2.505691e-01 0.0
-5.051973e-04 3.620444e-04 0.0
-2.137167e-05 2.522245e-01 0.0
-9.457847e-07 1.876206e-04 0.0
1.067123e-03 3.103360e-03 0.0
-5.450901e-03 2.316703e-01 0.0
-4.456768e-03 7.474792e-02 0.0
-4.083292e-03 5.782160e-02 0.0
5.097125e-03 1.255726e-01 0.0
5.254307e-03 1.461118e-01 0.0
-3.633629e-03 4.249313e-02 0.0
5.366921e-03 1.671602e-01 0.0
-3.108205e-03 2.906816e-02 0.0
-5.520038e-03 2.101373e-01 0.0
1.824018e-03 9.082184e-03 0.0
-2.509121e-03 1.783829e-02 0.0
5.440057e-03 1.885521e-01 0.0
-1.904598e-03 9.001003e-03 0.0
5.707499e-03 2.103890e-01 0.0
-5.708367e-03 1.888028e-01 0.0
2.579054e-03 1.772332e-02 0.0
-5.633254e-03 1.674079e-01 0.0
3.199854e-03 2.892772e-02 0.0
3.742163e-03 4.232789e-02 0.0
-5.515946e-03 1.463549e-01 0.0
-5.351999e-03 1.258088e-01 0.0
4.207782e-03 5.763630e-02 0.0
4.599186e-03 7.453759e-02 0.0
5.869937e-03 2.321327e-01 0.0
-1.147097e-03 3.015563e-03 0.0
5.791672e-03 1.071916e-01 0.0
-5.940178e-03 1.072613e-01 0.0
-5.223913e-03 9.141491e-02 0.0
5.184204e-03 9.141366e-02 0.0
1.157690e-03 1.419607e-03 0.0
-9.000187e-03 2.416258e-01 0.0
8.960472e-03 2.416259e-01 0.0
-1.160419e-03 1.422030e-03 0.0
1.044724e-02 1.156585e-01 0.0
-7.118177e-03 6.614167e-02 0.0
8.648627e-03 1.357838e-01 0.0
-6.432589e-03 4.998306e-02 0.0
8.872324e-03 1.565940e-01 0.0
-5.621514e-03 3.557624e-02 0.0
9.025767e-03 1.778304e-01 0.0
-4.687046e-03 2.322124e-02 0.0
2.600782e-03 5.809368e-03 0.0
-9.788879e-03 2.209569e-01 0.0
-3.631137e-03 1.319637e-02 0.0
9.117800e-03 1.993329e-01 0.0
4.477732e-03 1.317233e-02 0.0
-1.135917e-02 1.995031e-01 0.0
9.159473e-03 2.209621e-01 0.0
-2.453556e-03 5.795775e-03 0.0
-9.067652e-03 1.778304e-01 0.0
4.659744e-03 2.322027e-02 0.0
5.590493e-03 3.557445e-02 0.0
-8.913798e-03 1.565940e-01 0.0
6.396816e-03 4.998197e-02 0.0
-8.689051e-03 1.357838e-01 0.0
7.079446e-03 6.614158e-02 0.0
-9.971738e-03 1.156552e-01 0.0
9.003635e-03 8.348672e-02 0.0
-8.965990e-03 8.350839e-02 0.0
3.898006e-04 1.523139e-04 0.0
-1.212280e-02 2.554109e-01 0.0
1.208473e-02 2.554119e-01 0.0
-3.913291e-04 1.530456e-04 0.0
7.703744e-03 9.957979e-02 0.0
-8.308122e-03 9.941351e-02 0.0
3.901203e-03 2.559374e-01 0.0
-1.153725e-04 2.187164e-05 0.0
-3.939521e-03 2.559371e-01 0.0
1.144104e-04 2.172837e-05 0.0
-6.049677e-05 3.724114e-03 0.0
2.211280e-04 2.286837e-01 0.0
-2.512331e-03 4.044136e-03 0.0
1.127071e-02 2.280017e-01 0.0
5.722788e-04 2.064421e-01 0.0
-2.227524e-04 1.035573e-02 0.0
1.359516e-04 1.936156e-02 0.0
-3.230164e-04 1.852846e-01 0.0
-3.189510e-04 1.639325e-01 0.0
1.621271e-04 3.094683e-02 0.0
-3.120627e-04 1.429484e-01 0.0
1.873088e-04 4.468372e-02 0.0
2.100558e-04 6.027896e-02 0.0
-3.149554e-04 1.225304e-01 0.0
2.435702e-04 7.738347e-02 0.0
-3.998729e-03 1.052639e-02 0.0
1.121899e-02 2.063628e-01 0.0
5.315283e-03 1.972782e-02 0.0
-1.117130e-02 1.848068e-01 0.0
6.510641e-03 3.134725e-02 0.0
-1.100977e-02 1.634688e-01 0.0
-1.076466e-02 1.425041e-01 0.0
7.551381e-03 4.511464e-02 0.0
8.439183e-03 6.073433e-02 0.0
-1.070021e-02 1.226295e-01 0.0
9.384415e-03 7.737653e-02 0.0
2.457241e-03 3.972648e-03 0.0
-1.120372e-02 2.282989e-01 0.0
1.047956e-02 1.221588e-01 0.0
-8.362259e-03 6.056476e-02 0.0
1.059011e-02 1.427152e-01 0.0
-7.480973e-03 4.496358e-02 0.0
1.083043e-02 1.636848e-01 0.0
-6.447221e-03 3.121600e-02 0.0
-5.266684e-03 1.961684e-02 0.0
1.098900e-02 1.850252e-01 0.0
4.025241e-03 1.056548e-02 0.0
-1.132415e-02 2.062723e-01 0.0
-1.129233e-02 2.139465e-01 0.0
3.502533e-03 7.937145e-03 0.0
-4.878765e-03 1.630186e-02 0.0
1.107059e-02 1.921378e-01 0.0
1.093553e-02 1.707097e-01 0.0
-6.109595e-03 2.713020e-02 0.0
1.072148e-02 1.495988e-01 0.0
-7.195825e-03 4.019881e-02 0.0
1.044494e-02 1.289560e-01 0.0
-8.130108e-03 5.522024e-02 0.0
-8.952711e-03 7.181898e-02 0.0
-9.232322e-03 7.756046e-02 0.0
1.235876e-05 8.889939e-02 0.0
-1.140042e-02 2.351005e-01 0.0
2.006654e-03 2.553972e-03 0.0
-3.807501e-04 1.087130e-01 0.0
-1.143641e-05 2.378541e-03 0.0
2.466627e-05 2.351250e-01 0.0
-3.545390e-05 7.930402e-03 0.0
5.858414e-05 2.134865e-01 0.0
1.569231e-04 1.919462e-01 0.0
1.953965e-06 2.711322e-02 0.0
-4.905512e-05 1.705155e-01 0.0
1.524807e-06 4.021392e-02 0.0
1.793636e-06 5.526593e-02 0.0
-4.875948e-05 1.287723e-01 0.0
6.356088e-06 7.195704e-02 0.0
-4.818342e-05 1.494000e-01 0.0
-8.186760e-05 1.625062e-02 0.0
-7.899419e-03 2.566274e-01 0.0
-1.963797e-05 2.570626e-01 0.0
1.929155e-04 5.232468e-05 0.0
-3.402711e-07 6.492029e-08 0.0
7.861087e-03 2.566269e-01 0.0
-1.939168e-04 5.260003e-05 0.0
8.934749e-03 7.163861e-02 0.0
8.180629e-03 5.488167e-02 0.0
-1.054694e-02 1.292632e-01 0.0
7.235149e-03 3.989795e-02 0.0
-1.112302e-02 1.711661e-01 0.0
6.136556e-03 2.687619e-02 0.0
-1.090736e-02 1.500476e-01 0.0
-1.143024e-02 1.923975e-01 0.0
4.961870e-03 1.619381e-02 0.0
1.128440e-02 2.142016e-01 0.0
-3.509139e-03 7.852689e-03 0.0
1.104094e-02 2.351100e-01 0.0
-1.953905e-03 2.544204e-03 0.0
-2.413073e-04 5.621698e-04 0.0
2.392698e-04 5.783560e-04 0.0
2.835744e-03 2.477346e-01 0.0
-2.860107e-03 2.475690e-01 0.0
-1.048720e-02 1.094815e-01 0.0
1.051871e-02 1.094710e-01 0.0
1.006692e-02 9.468146e-02 0.0
-1.010799e-02 9.468358e-02 0.0
1.213046e-03 4.368377e-03 0.0
-5.222190e-03 2.261323e-01 0.0
1.357285e-02 2.500679e-01 0.0
-1.009140e-03 6.285549e-04 0.0
-1.361167e-02 2.500684e-01 0.0
1.005964e-03 6.268539e-04 0.0
4.961749e-03 1.189652e-01 0.0
-3.863089e-03 6.212420e-02 0.0
4.806600e-03 1.406638e-01 0.0
-3.467280e-03 4.634641e-02 0.0
-3.000918e-03 3.239256e-02 0.0
4.920954e-03 1.615948e-01 0.0
-2.466486e-03 2.055982e-02 0.0
4.997660e-03 1.829121e-01 0.0
-5.219775e-03 2.031401e-01 0.0
1.936777e-03 1.162336e-02 0.0
-4.356914e-03 8.048775e-02 0.0
9.685580e-03 8.933905e-02 0.0
-9.712480e-03 8.934409e-02 0.0
-5.286406e-03 2.159151e-01 0.0
1.555671e-03 7.199354e-03 0.0
5.477487e-03 1.943908e-01 0.0
-2.340818e-03 1.521343e-02 0.0
-2.755139e-03 2.585934e-02 0.0
5.030301e-03 1.728163e-01 0.0
4.935585e-03 1.516606e-01 0.0
-3.264690e-03 3.872847e-02 0.0
-3.704249e-03 5.358081e-02 0.0
4.806078e-03 1.309680e-01 0.0
-4.079441e-03 7.009748e-02 0.0
1.440774e-03 1.040814e-01 0.0
-3.127440e-04 1.331029e-04 0.0
1.525415e-02 2.575076e-01 0.0
-1.529141e-02 2.575051e-01 0.0
3.118918e-04 1.326098e-04 0.0
-1.089174e-02 1.037835e-01 0.0
1.099487e-02 1.041355e-01 0.0
4.128029e-03 7.002076e-02 0.0
3.758582e-03 5.347786e-02 0.0
-4.955524e-03 1.310776e-01 0.0
3.311947e-03 3.863714e-02 0.0
-5.104920e-03 1.517996e-01 0.0
-5.202187e-03 1.729572e-01 0.0
2.794587e-03 2.578246e-02 0.0
-5.409165e-03 1.958587e-01 0.0
2.227543e-03 1.457466e-02 0.0
-1.571811e-03 7.170325e-03 0.0
5.263901e-03 2.160177e-01 0.0
-4.326517e-03 9.641352e-02 0.0
4.041947e-03 9.598309e-02 0.0
5.624769e-03 2.042942e-01 0.0
-2.085020e-03 1.119555e-02 0.0
-5.146791e-03 1.190819e-01 0.0
4.009107e-03 6.212138e-02 0.0
3.597450e-03 4.634315e-02 0.0
-5.077278e-03 1.406702e-01 0.0
-5.197867e-03 1.616013e-01 0.0
3.115137e-03 3.239031e-02 0.0
2.560942e-03 2.055845e-02 0.0
-5.278245e-03 1.829190e-01 0.0
4.548401e-03 8.041782e-02 0.0
5.325789e-03 2.261666e-01 0.0
-1.257932e-03 4.365726e-03 0.0
4.504838e-03 8.626691e-02 0.0
-4.449968e-03 8.627891e-02 0.0
-5.361618e-03 1.126504e-01 0.0
4.526100e-03 1.122813e-01 0.0
-3.870782e-03 1.025644e-01 0.0
-5.168755e-03 2.372528e-01 0.0
8.075853e-04 2.036751e-03 0.0
-8.232790e-04 2.019315e-03 0.0
5.174350e-03 2.373472e-01 0.0
1.397256e-03 1.077873e-03 0.0
-1.306513e-02 2.452786e-01 0.0
1.302570e-02 2.452780e-01 0.0
-1.402104e-03 1.079435e-03 0.0
-5.554731e-05 9.382395e-02 0.0
