# vtk DataFile Version 2.0
Simplicial Mesh Example
ASCII
DATASET UNSTRUCTURED_GRID
POINTS 4730 double
0.000000e+00 0.000000e+00 5.519500e-01
4.000000e-02 0.000000e+00 5.519500e-01
4.000000e-02 0.000000e+00 5.480500e-01
2.650000e-02 0.000000e+00 5.480500e-01
2.650000e-02 0.000000e+00 0.000000e+00
2.500000e-02 0.000000e+00 0.000000e+00
2.500000e-02 0.000000e+00 5.500000e-01
0.000000e+00 0.000000e+00 5.500000e-01
2.449294e-18 4.000000e-02 5.519500e-01
2.449294e-18 4.000000e-02 5.480500e-01
1.622657e-18 2.650000e-02 5.480500e-01
1.622657e-18 2.650000e-02 0.000000e+00
1.530808e-18 2.500000e-02 0.000000e+00
1.530808e-18 2.500000e-02 5.500000e-01
2.352941e-03 0.000000e+00 5.519500e-01
4.705882e-03 0.000000e+00 5.519500e-01
7.058824e-03 0.000000e+00 5.519500e-01
9.411765e-03 0.000000e+00 5.519500e-01
1.176471e-02 0.000000e+00 5.519500e-01
1.411765e-02 0.000000e+00 5.519500e-01
1.647059e-02 0.000000e+00 5.519500e-01
1.882353e-02 0.000000e+00 5.519500e-01
2.117647e-02 0.000000e+00 5.519500e-01
2.352941e-02 0.000000e+00 5.519500e-01
2.588235e-02 0.000000e+00 5.519500e-01
2.823529e-02 0.000000e+00 5.519500e-01
3.058824e-02 0.000000e+00 5.519500e-01
3.294118e-02 0.000000e+00 5.519500e-01
3.529412e-02 0.000000e+00 5.519500e-01
3.764706e-02 0.000000e+00 5.519500e-01
4.000000e-02 0.000000e+00 5.500000e-01
3.662500e-02 0.000000e+00 5.480500e-01
3.325000e-02 0.000000e+00 5.480500e-01
2.987500e-02 0.000000e+00 5.480500e-01
2.650000e-02 0.000000e+00 5.430677e-01
2.650000e-02 0.000000e+00 5.380855e-01
2.650000e-02 0.000000e+00 5.331032e-01
2.650000e-02 0.000000e+00 5.281209e-01
2.650000e-02 0.000000e+00 5.231386e-01
2.650000e-02 0.000000e+00 5.181564e-01
2.650000e-02 0.000000e+00 5.131741e-01
2.650000e-02 0.000000e+00 5.081918e-01
2.650000e-02 0.000000e+00 5.032095e-01
2.650000e-02 0.000000e+00 4.982273e-01
2.650000e-02 0.000000e+00 4.932450e-01
2.650000e-02 0.000000e+00 4.882627e-01
2.650000e-02 0.000000e+00 4.832805e-01
2.650000e-02 0.000000e+00 4.782982e-01
2.650000e-02 0.000000e+00 4.733159e-01
2.650000e-02 0.000000e+00 4.683336e-01
2.650000e-02 0.000000e+00 4.633514e-01
2.650000e-02 0.000000e+00 4.583691e-01
2.650000e-02 0.000000e+00 4.533868e-01
2.650000e-02 0.000000e+00 4.484045e-01
2.650000e-02 0.000000e+00 4.434223e-01
2.650000e-02 0.000000e+00 4.384400e-01
2.650000e-02 0.000000e+00 4.334577e-01
2.650000e-02 0.000000e+00 4.284755e-01
2.650000e-02 0.000000e+00 4.234932e-01
2.650000e-02 0.000000e+00 4.185109e-01
2.650000e-02 0.000000e+00 4.135286e-01
2.650000e-02 0.000000e+00 4.085464e-01
2.650000e-02 0.000000e+00 4.035641e-01
2.650000e-02 0.000000e+00 3.985818e-01
2.650000e-02 0.000000e+00 3.935995e-01
2.650000e-02 0.000000e+00 3.886173e-01
2.650000e-02 0.000000e+00 3.836350e-01
2.650000e-02 0.000000e+00 3.786527e-01
2.650000e-02 0.000000e+00 3.736705e-01
2.650000e-02 0.000000e+00 3.686882e-01
2.650000e-02 0.000000e+00 3.637059e-01
2.650000e-02 0.000000e+00 3.587236e-01
2.650000e-02 0.000000e+00 3.537414e-01
2.650000e-02 0.000000e+00 3.487591e-01
2.650000e-02 0.000000e+00 3.437768e-01
2.650000e-02 0.000000e+00 3.387945e-01
2.650000e-02 0.000000e+00 3.338123e-01
2.650000e-02 0.000000e+00 3.288300e-01
2.650000e-02 0.000000e+00 3.238477e-01
2.650000e-02 0.000000e+00 3.188655e-01
2.650000e-02 0.000000e+00 3.138832e-01
2.650000e-02 0.000000e+00 3.089009e-01
2.650000e-02 0.000000e+00 3.039186e-01
2.650000e-02 0.000000e+00 2.989364e-01
2.650000e-02 0.000000e+00 2.939541e-01
2.650000e-02 0.000000e+00 2.889718e-01
2.650000e-02 0.000000e+00 2.839895e-01
2.650000e-02 0.000000e+00 2.790073e-01
2.650000e-02 0.000000e+00 2.740250e-01
2.650000e-02 0.000000e+00 2.690427e-01
2.650000e-02 0.000000e+00 2.640605e-01
2.650000e-02 0.000000e+00 2.590782e-01
2.650000e-02 0.000000e+00 2.540959e-01
2.650000e-02 0.000000e+00 2.491136e-01
2.650000e-02 0.000000e+00 2.441314e-01
2.650000e-02 0.000000e+00 2.391491e-01
2.650000e-02 0.000000e+00 2.341668e-01
2.650000e-02 0.000000e+00 2.291845e-01
2.650000e-02 0.000000e+00 2.242023e-01
2.650000e-02 0.000000e+00 2.192200e-01
2.650000e-02 0.000000e+00 2.142377e-01
2.650000e-02 0.000000e+00 2.092555e-01
2.650000e-02 0.000000e+00 2.042732e-01
2.650000e-02 0.000000e+00 1.992909e-01
2.650000e-02 0.000000e+00 1.943086e-01
2.650000e-02 0.000000e+00 1.893264e-01
2.650000e-02 0.000000e+00 1.843441e-01
2.650000e-02 0.000000e+00 1.793618e-01
2.650000e-02 0.000000e+00 1.743795e-01
2.650000e-02 0.000000e+00 1.693973e-01
2.650000e-02 0.000000e+00 1.644150e-01
2.650000e-02 0.000000e+00 1.594327e-01
2.650000e-02 0.000000e+00 1.544505e-01
2.650000e-02 0.000000e+00 1.494682e-01
2.650000e-02 0.000000e+00 1.444859e-01
2.650000e-02 0.000000e+00 1.395036e-01
2.650000e-02 0.000000e+00 1.345214e-01
2.650000e-02 0.000000e+00 1.295391e-01
2.650000e-02 0.000000e+00 1.245568e-01
2.650000e-02 0.000000e+00 1.195745e-01
2.650000e-02 0.000000e+00 1.145923e-01
2.650000e-02 0.000000e+00 1.096100e-01
2.650000e-02 0.000000e+00 1.046277e-01
2.650000e-02 0.000000e+00 9.964545e-02
2.650000e-02 0.000000e+00 9.466318e-02
2.650000e-02 0.000000e+00 8.968091e-02
2.650000e-02 0.000000e+00 8.469864e-02
2.650000e-02 0.000000e+00 7.971636e-02
2.650000e-02 0.000000e+00 7.473409e-02
2.650000e-02 0.000000e+00 6.975182e-02
2.650000e-02 0.000000e+00 6.476955e-02
2.650000e-02 0.000000e+00 5.978727e-02
2.650000e-02 0.000000e+00 5.480500e-02
2.650000e-02 0.000000e+00 4.982273e-02
2.650000e-02 0.000000e+00 4.484045e-02
2.650000e-02 0.000000e+00 3.985818e-02
2.650000e-02 0.000000e+00 3.487591e-02
2.650000e-02 0.000000e+00 2.989364e-02
2.650000e-02 0.000000e+00 2.491136e-02
2.650000e-02 0.000000e+00 1.992909e-02
2.650000e-02 0.000000e+00 1.494682e-02
2.650000e-02 0.000000e+00 9.964545e-03
2.650000e-02 0.000000e+00 4.982273e-03
2.500000e-02 0.000000e+00 4.954955e-03
2.500000e-02 0.000000e+00 9.909910e-03
2.500000e-02 0.000000e+00 1.486486e-02
2.500000e-02 0.000000e+00 1.981982e-02
2.500000e-02 0.000000e+00 2.477477e-02
2.500000e-02 0.000000e+00 2.972973e-02
2.500000e-02 0.000000e+00 3.468468e-02
2.500000e-02 0.000000e+00 3.963964e-02
2.500000e-02 0.000000e+00 4.459459e-02
2.500000e-02 0.000000e+00 4.954955e-02
2.500000e-02 0.000000e+00 5.450450e-02
2.500000e-02 0.000000e+00 5.945946e-02
2.500000e-02 0.000000e+00 6.441441e-02
2.500000e-02 0.000000e+00 6.936937e-02
2.500000e-02 0.000000e+00 7.432432e-02
2.500000e-02 0.000000e+00 7.927928e-02
2.500000e-02 0.000000e+00 8.423423e-02
2.500000e-02 0.000000e+00 8.918919e-02
2.500000e-02 0.000000e+00 9.414414e-02
2.500000e-02 0.000000e+00 9.909910e-02
2.500000e-02 0.000000e+00 1.040541e-01
2.500000e-02 0.000000e+00 1.090090e-01
2.500000e-02 0.000000e+00 1.139640e-01
2.500000e-02 0.000000e+00 1.189189e-01
2.500000e-02 0.000000e+00 1.238739e-01
2.500000e-02 0.000000e+00 1.288288e-01
2.500000e-02 0.000000e+00 1.337838e-01
2.500000e-02 0.000000e+00 1.387387e-01
2.500000e-02 0.000000e+00 1.436937e-01
2.500000e-02 0.000000e+00 1.486486e-01
2.500000e-02 0.000000e+00 1.536036e-01
2.500000e-02 0.000000e+00 1.585586e-01
2.500000e-02 0.000000e+00 1.635135e-01
2.500000e-02 0.000000e+00 1.684685e-01
2.500000e-02 0.000000e+00 1.734234e-01
2.500000e-02 0.000000e+00 1.783784e-01
2.500000e-02 0.000000e+00 1.833333e-01
2.500000e-02 0.000000e+00 1.882883e-01
2.500000e-02 0.000000e+00 1.932432e-01
2.500000e-02 0.000000e+00 1.981982e-01
2.500000e-02 0.000000e+00 2.031532e-01
2.500000e-02 0.000000e+00 2.081081e-01
2.500000e-02 0.000000e+00 2.130631e-01
2.500000e-02 0.000000e+00 2.180180e-01
2.500000e-02 0.000000e+00 2.229730e-01
2.500000e-02 0.000000e+00 2.279279e-01
2.500000e-02 0.000000e+00 2.328829e-01
2.500000e-02 0.000000e+00 2.378378e-01
2.500000e-02 0.000000e+00 2.427928e-01
2.500000e-02 0.000000e+00 2.477477e-01
2.500000e-02 0.000000e+00 2.527027e-01
2.500000e-02 0.000000e+00 2.576577e-01
2.500000e-02 0.000000e+00 2.626126e-01
2.500000e-02 0.000000e+00 2.675676e-01
2.500000e-02 0.000000e+00 2.725225e-01
2.500000e-02 0.000000e+00 2.774775e-01
2.500000e-02 0.000000e+00 2.824324e-01
2.500000e-02 0.000000e+00 2.873874e-01
2.500000e-02 0.000000e+00 2.923423e-01
2.500000e-02 0.000000e+00 2.972973e-01
2.500000e-02 0.000000e+00 3.022523e-01
2.500000e-02 0.000000e+00 3.072072e-01
2.500000e-02 0.000000e+00 3.121622e-01
2.500000e-02 0.000000e+00 3.171171e-01
2.500000e-02 0.000000e+00 3.220721e-01
2.500000e-02 0.000000e+00 3.270270e-01
2.500000e-02 0.000000e+00 3.319820e-01
2.500000e-02 0.000000e+00 3.369369e-01
2.500000e-02 0.000000e+00 3.418919e-01
2.500000e-02 0.000000e+00 3.468468e-01
2.500000e-02 0.000000e+00 3.518018e-01
2.500000e-02 0.000000e+00 3.567568e-01
2.500000e-02 0.000000e+00 3.617117e-01
2.500000e-02 0.000000e+00 3.666667e-01
2.500000e-02 0.000000e+00 3.716216e-01
2.500000e-02 0.000000e+00 3.765766e-01
2.500000e-02 0.000000e+00 3.815315e-01
2.500000e-02 0.000000e+00 3.864865e-01
2.500000e-02 0.000000e+00 3.914414e-01
2.500000e-02 0.000000e+00 3.963964e-01
2.500000e-02 0.000000e+00 4.013514e-01
2.500000e-02 0.000000e+00 4.063063e-01
2.500000e-02 0.000000e+00 4.112613e-01
2.500000e-02 0.000000e+00 4.162162e-01
2.500000e-02 0.000000e+00 4.211712e-01
2.500000e-02 0.000000e+00 4.261261e-01
2.500000e-02 0.000000e+00 4.310811e-01
2.500000e-02 0.000000e+00 4.360360e-01
2.500000e-02 0.000000e+00 4.409910e-01
2.500000e-02 0.000000e+00 4.459459e-01
2.500000e-02 0.000000e+00 4.509009e-01
2.500000e-02 0.000000e+00 4.558559e-01
2.500000e-02 0.000000e+00 4.608108e-01
2.500000e-02 0.000000e+00 4.657658e-01
2.500000e-02 0.000000e+00 4.707207e-01
2.500000e-02 0.000000e+00 4.756757e-01
2.500000e-02 0.000000e+00 4.806306e-01
2.500000e-02 0.000000e+00 4.855856e-01
2.500000e-02 0.000000e+00 4.905405e-01
2.500000e-02 0.000000e+00 4.954955e-01
2.500000e-02 0.000000e+00 5.004505e-01
2.500000e-02 0.000000e+00 5.054054e-01
2.500000e-02 0.000000e+00 5.103604e-01
2.500000e-02 0.000000e+00 5.153153e-01
2.500000e-02 0.000000e+00 5.202703e-01
2.500000e-02 0.000000e+00 5.252252e-01
2.500000e-02 0.000000e+00 5.301802e-01
2.500000e-02 0.000000e+00 5.351351e-01
2.500000e-02 0.000000e+00 5.400901e-01
2.500000e-02 0.000000e+00 5.450450e-01
[...]
POINT_DATA 4730
VECTORS Vec_0x84000000_1 double
0.000000e+00 0.000000e+00 7.072441e-03
1.138682e-04 0.000000e+00 -1.183586e-04
-1.481811e-04 0.000000e+00 -1.188321e-04
-1.620617e-04 0.000000e+00 8.790869e-04
2.177406e-04 0.000000e+00 0.000000e+00
2.235395e-04 0.000000e+00 0.000000e+00
-4.989411e-05 0.000000e+00 9.954653e-04
0.000000e+00 0.000000e+00 7.077787e-03
0.000000e+00 1.138073e-04 -1.170124e-04
0.000000e+00 -1.478729e-04 -1.174520e-04
0.000000e+00 -1.626595e-04 8.778754e-04
0.000000e+00 2.185755e-04 0.000000e+00
0.000000e+00 2.243966e-04 0.000000e+00
0.000000e+00 -5.150614e-05 9.954167e-04
8.232369e-05 0.000000e+00 6.979311e-03
1.614502e-04 0.000000e+00 6.704748e-03
2.337155e-04 0.000000e+00 6.260260e-03
2.951255e-04 0.000000e+00 5.666933e-03
3.431749e-04 0.000000e+00 4.955541e-03
3.727228e-04 0.000000e+00 4.162407e-03
3.831124e-04 0.000000e+00 3.334740e-03
3.654772e-04 0.000000e+00 2.529599e-03
3.232708e-04 0.000000e+00 1.809784e-03
2.464620e-04 0.000000e+00 1.244088e-03
1.616534e-04 0.000000e+00 9.143659e-04
1.323521e-04 0.000000e+00 7.246088e-04
1.271777e-04 0.000000e+00 5.458420e-04
1.227860e-04 0.000000e+00 3.723915e-04
1.191332e-04 0.000000e+00 2.045421e-04
1.161780e-04 0.000000e+00 4.130153e-05
-1.715470e-05 0.000000e+00 -1.176509e-04
-1.527474e-04 0.000000e+00 1.112293e-04
-1.590889e-04 0.000000e+00 3.496363e-04
-1.670985e-04 0.000000e+00 5.999525e-04
-5.505775e-05 0.000000e+00 9.221441e-04
1.498757e-04 0.000000e+00 8.918593e-04
2.180522e-04 0.000000e+00 8.646235e-04
2.199759e-04 0.000000e+00 8.530746e-04
2.158051e-04 0.000000e+00 8.452155e-04
2.125589e-04 0.000000e+00 8.374019e-04
2.143694e-04 0.000000e+00 8.298146e-04
2.177871e-04 0.000000e+00 8.217397e-04
2.182290e-04 0.000000e+00 8.131591e-04
2.201158e-04 0.000000e+00 8.057389e-04
2.252008e-04 0.000000e+00 7.971898e-04
2.260859e-04 0.000000e+00 7.885778e-04
2.247256e-04 0.000000e+00 7.799359e-04
2.220930e-04 0.000000e+00 7.716312e-04
2.178602e-04 0.000000e+00 7.635572e-04
2.156518e-04 0.000000e+00 7.560504e-04
2.167812e-04 0.000000e+00 7.485283e-04
2.164606e-04 0.000000e+00 7.399589e-04
2.147166e-04 0.000000e+00 7.321540e-04
2.149833e-04 0.000000e+00 7.244423e-04
2.151631e-04 0.000000e+00 7.163595e-04
2.142644e-04 0.000000e+00 7.081078e-04
2.119994e-04 0.000000e+00 7.004492e-04
2.139272e-04 0.000000e+00 6.928608e-04
2.153730e-04 0.000000e+00 6.845553e-04
2.154437e-04 0.000000e+00 6.765509e-04
2.161878e-04 0.000000e+00 6.687443e-04
2.168336e-04 0.000000e+00 6.604575e-04
2.178760e-04 0.000000e+00 6.523629e-04
2.162650e-04 0.000000e+00 6.439683e-04
2.135628e-04 0.000000e+00 6.357517e-04
2.125629e-04 0.000000e+00 6.286231e-04
2.170918e-04 0.000000e+00 6.210078e-04
2.207952e-04 0.000000e+00 6.118331e-04
2.174290e-04 0.000000e+00 6.028907e-04
2.133213e-04 0.000000e+00 5.954147e-04
2.124345e-04 0.000000e+00 5.871546e-04
2.095077e-04 0.000000e+00 5.791955e-04
2.101161e-04 0.000000e+00 5.717082e-04
2.109125e-04 0.000000e+00 5.635211e-04
2.105581e-04 0.000000e+00 5.554643e-04
2.116841e-04 0.000000e+00 5.475756e-04
2.126576e-04 0.000000e+00 5.392300e-04
2.120611e-04 0.000000e+00 5.308465e-04
2.095891e-04 0.000000e+00 5.223975e-04
2.071567e-04 0.000000e+00 5.144968e-04
2.038595e-04 0.000000e+00 5.063967e-04
2.028182e-04 0.000000e+00 4.989750e-04
2.049354e-04 0.000000e+00 4.917618e-04
2.088136e-04 0.000000e+00 4.832426e-04
2.084131e-04 0.000000e+00 4.744224e-04
2.057799e-04 0.000000e+00 4.662082e-04
2.037064e-04 0.000000e+00 4.585639e-04
2.049269e-04 0.000000e+00 4.511385e-04
2.075734e-04 0.000000e+00 4.430760e-04
2.105229e-04 0.000000e+00 4.349503e-04
2.112948e-04 0.000000e+00 4.266795e-04
2.127026e-04 0.000000e+00 4.186670e-04
2.140748e-04 0.000000e+00 4.100795e-04
2.113684e-04 0.000000e+00 4.012249e-04
2.077731e-04 0.000000e+00 3.936481e-04
2.064501e-04 0.000000e+00 3.857698e-04
2.059278e-04 0.000000e+00 3.784270e-04
2.091157e-04 0.000000e+00 3.706626e-04
2.115319e-04 0.000000e+00 3.622671e-04
2.142727e-04 0.000000e+00 3.544675e-04
2.175068e-04 0.000000e+00 3.458733e-04
2.189863e-04 0.000000e+00 3.378384e-04
2.180345e-04 0.000000e+00 3.290449e-04
2.163033e-04 0.000000e+00 3.210097e-04
2.161310e-04 0.000000e+00 3.132434e-04
2.171840e-04 0.000000e+00 3.053014e-04
2.175959e-04 0.000000e+00 2.969806e-04
2.153940e-04 0.000000e+00 2.885215e-04
2.128390e-04 0.000000e+00 2.808413e-04
2.117904e-04 0.000000e+00 2.732946e-04
2.140807e-04 0.000000e+00 2.657918e-04
2.171640e-04 0.000000e+00 2.575874e-04
2.178361e-04 0.000000e+00 2.489754e-04
2.170701e-04 0.000000e+00 2.409969e-04
2.172929e-04 0.000000e+00 2.332046e-04
2.177712e-04 0.000000e+00 2.251834e-04
2.196669e-04 0.000000e+00 2.174262e-04
2.222739e-04 0.000000e+00 2.090329e-04
2.216077e-04 0.000000e+00 2.005865e-04
2.219157e-04 0.000000e+00 1.930574e-04
2.234797e-04 0.000000e+00 1.844263e-04
2.223425e-04 0.000000e+00 1.761947e-04
2.219807e-04 0.000000e+00 1.684881e-04
2.211958e-04 0.000000e+00 1.596409e-04
2.195272e-04 0.000000e+00 1.519553e-04
2.184068e-04 0.000000e+00 1.438434e-04
2.180447e-04 0.000000e+00 1.360287e-04
2.171598e-04 0.000000e+00 1.277289e-04
2.152420e-04 0.000000e+00 1.195498e-04
2.137000e-04 0.000000e+00 1.118487e-04
2.122937e-04 0.000000e+00 1.037609e-04
2.122919e-04 0.000000e+00 9.628172e-05
2.131460e-04 0.000000e+00 8.832723e-05
2.131964e-04 0.000000e+00 8.063564e-05
2.154894e-04 0.000000e+00 7.283473e-05
2.172752e-04 0.000000e+00 6.420536e-05
2.176722e-04 0.000000e+00 5.679825e-05
2.203536e-04 0.000000e+00 4.824645e-05
2.201030e-04 0.000000e+00 4.016012e-05
2.189924e-04 0.000000e+00 3.160514e-05
2.184216e-04 0.000000e+00 2.427292e-05
2.213199e-04 0.000000e+00 1.633688e-05
2.198833e-04 0.000000e+00 7.544338e-06
2.256870e-04 0.000000e+00 8.469492e-06
2.273502e-04 0.000000e+00 1.551342e-05
2.243888e-04 0.000000e+00 2.377263e-05
2.249231e-04 0.000000e+00 3.225166e-05
2.261535e-04 0.000000e+00 3.969687e-05
2.264274e-04 0.000000e+00 4.784478e-05
2.237947e-04 0.000000e+00 5.549732e-05
2.232311e-04 0.000000e+00 6.408046e-05
2.215500e-04 0.000000e+00 7.158554e-05
2.191721e-04 0.000000e+00 7.956034e-05
2.189897e-04 0.000000e+00 8.801469e-05
2.182276e-04 0.000000e+00 9.538469e-05
2.180696e-04 0.000000e+00 1.036787e-04
2.195006e-04 0.000000e+00 1.115752e-04
2.209828e-04 0.000000e+00 1.195568e-04
2.230155e-04 0.000000e+00 1.275332e-04
2.240100e-04 0.000000e+00 1.352478e-04
2.241842e-04 0.000000e+00 1.434835e-04
2.254450e-04 0.000000e+00 1.513238e-04
2.268646e-04 0.000000e+00 1.597051e-04
2.280321e-04 0.000000e+00 1.673089e-04
2.280936e-04 0.000000e+00 1.756246e-04
2.294004e-04 0.000000e+00 1.835843e-04
2.281469e-04 0.000000e+00 1.914369e-04
2.274185e-04 0.000000e+00 1.998425e-04
2.284149e-04 0.000000e+00 2.077155e-04
2.260927e-04 0.000000e+00 2.152039e-04
2.238328e-04 0.000000e+00 2.237469e-04
2.231721e-04 0.000000e+00 2.318125e-04
2.228797e-04 0.000000e+00 2.397242e-04
2.235617e-04 0.000000e+00 2.478987e-04
2.234356e-04 0.000000e+00 2.555527e-04
2.205648e-04 0.000000e+00 2.632163e-04
2.178487e-04 0.000000e+00 2.714432e-04
2.182731e-04 0.000000e+00 2.799225e-04
2.205678e-04 0.000000e+00 2.881731e-04
2.232597e-04 0.000000e+00 2.955642e-04
2.232646e-04 0.000000e+00 3.033209e-04
2.222544e-04 0.000000e+00 3.112270e-04
2.220105e-04 0.000000e+00 3.195601e-04
2.235436e-04 0.000000e+00 3.278326e-04
2.250367e-04 0.000000e+00 3.358916e-04
2.238682e-04 0.000000e+00 3.434443e-04
2.211402e-04 0.000000e+00 3.514451e-04
2.179564e-04 0.000000e+00 3.595887e-04
2.158744e-04 0.000000e+00 3.677721e-04
2.124502e-04 0.000000e+00 3.755508e-04
2.117924e-04 0.000000e+00 3.843215e-04
2.133058e-04 0.000000e+00 3.919916e-04
2.161468e-04 0.000000e+00 4.004317e-04
2.199110e-04 0.000000e+00 4.080367e-04
2.192882e-04 0.000000e+00 4.157018e-04
2.175160e-04 0.000000e+00 4.240205e-04
2.168480e-04 0.000000e+00 4.323201e-04
2.146198e-04 0.000000e+00 4.396210e-04
2.115877e-04 0.000000e+00 4.480198e-04
2.094924e-04 0.000000e+00 4.560160e-04
2.106492e-04 0.000000e+00 4.644027e-04
2.133985e-04 0.000000e+00 4.726001e-04
2.152182e-04 0.000000e+00 4.801896e-04
2.126818e-04 0.000000e+00 4.877016e-04
2.088374e-04 0.000000e+00 4.961335e-04
2.090335e-04 0.000000e+00 5.042914e-04
2.119224e-04 0.000000e+00 5.125950e-04
2.143655e-04 0.000000e+00 5.204705e-04
2.173435e-04 0.000000e+00 5.284636e-04
2.186308e-04 0.000000e+00 5.362578e-04
2.182096e-04 0.000000e+00 5.441371e-04
2.167446e-04 0.000000e+00 5.521957e-04
2.165617e-04 0.000000e+00 5.604185e-04
2.165064e-04 0.000000e+00 5.683740e-04
2.151911e-04 0.000000e+00 5.762080e-04
2.171138e-04 0.000000e+00 5.847740e-04
2.189336e-04 0.000000e+00 5.924703e-04
2.211122e-04 0.000000e+00 6.012089e-04
2.261270e-04 0.000000e+00 6.089782e-04
2.255207e-04 0.000000e+00 6.158402e-04
2.198378e-04 0.000000e+00 6.242447e-04
2.183309e-04 0.000000e+00 6.330450e-04
2.210238e-04 0.000000e+00 6.411384e-04
2.233020e-04 0.000000e+00 6.491259e-04
2.232285e-04 0.000000e+00 6.565419e-04
2.225984e-04 0.000000e+00 6.647519e-04
2.214990e-04 0.000000e+00 6.728210e-04
2.215026e-04 0.000000e+00 6.807603e-04
2.207444e-04 0.000000e+00 6.884463e-04
2.184066e-04 0.000000e+00 6.963964e-04
2.188293e-04 0.000000e+00 7.049974e-04
2.208743e-04 0.000000e+00 7.126576e-04
2.211065e-04 0.000000e+00 7.203767e-04
2.206328e-04 0.000000e+00 7.282130e-04
2.213358e-04 0.000000e+00 7.365288e-04
2.230462e-04 0.000000e+00 7.442443e-04
2.217060e-04 0.000000e+00 7.519727e-04
2.222618e-04 0.000000e+00 7.602251e-04
2.258811e-04 0.000000e+00 7.686428e-04
2.294734e-04 0.000000e+00 7.763129e-04
2.314905e-04 0.000000e+00 7.842511e-04
2.318375e-04 0.000000e+00 7.922985e-04
2.291418e-04 0.000000e+00 7.995206e-04
2.245450e-04 0.000000e+00 8.083560e-04
2.242944e-04 0.000000e+00 8.168393e-04
2.221480e-04 0.000000e+00 8.243009e-04
2.190814e-04 0.000000e+00 8.325227e-04
2.195551e-04 0.000000e+00 8.416094e-04
2.232568e-04 0.000000e+00 8.497548e-04
2.281065e-04 0.000000e+00 8.569418e-04
2.101426e-04 0.000000e+00 8.559611e-04
8.560811e-05 0.000000e+00 8.461488e-04
-1.477769e-04 0.000000e+00 8.730241e-04
-2.206363e-04 0.000000e+00 1.912733e-03
-2.948732e-04 0.000000e+00 3.271929e-03
-2.883774e-04 0.000000e+00 4.719718e-03
-2.246155e-04 0.000000e+00 5.960693e-03
-1.216618e-04 0.000000e+00 6.788796e-03
0.000000e+00 8.258561e-05 6.979100e-03
0.000000e+00 1.614512e-04 6.704043e-03
0.000000e+00 2.336223e-04 6.259646e-03
0.000000e+00 2.953901e-04 5.666467e-03
0.000000e+00 3.426866e-04 4.955159e-03
0.000000e+00 3.725170e-04 4.163638e-03
0.000000e+00 3.836431e-04 3.334312e-03
0.000000e+00 3.654206e-04 2.528792e-03
0.000000e+00 3.233837e-04 1.809337e-03
0.000000e+00 2.466226e-04 1.243911e-03
0.000000e+00 1.621900e-04 9.139879e-04
0.000000e+00 1.316426e-04 7.246553e-04
0.000000e+00 1.270418e-04 5.462758e-04
0.000000e+00 1.227140e-04 3.730570e-04
0.000000e+00 1.190556e-04 2.054584e-04
0.000000e+00 1.160935e-04 4.244454e-05
1.137281e-04 7.005020e-06 -1.136184e-04
1.130614e-04 1.410566e-05 -1.173789e-04
1.120589e-04 2.097609e-05 -1.192229e-04
1.106682e-04 2.778912e-05 -1.197889e-04
1.088658e-04 3.450748e-05 -1.205014e-04
1.066784e-04 4.107544e-05 -1.211873e-04
1.040897e-04 4.746761e-05 -1.219153e-04
1.011376e-04 5.366974e-05 -1.226167e-04
9.782768e-05 5.965348e-05 -1.231724e-04
9.416012e-05 6.537446e-05 -1.236154e-04
9.017629e-05 7.087864e-05 -1.239114e-04
8.586799e-05 7.611279e-05 -1.240291e-04
8.122769e-05 8.103915e-05 -1.239633e-04
7.627229e-05 8.569621e-05 -1.236799e-04
7.102573e-05 9.006000e-05 -1.232914e-04
6.548984e-05 9.406954e-05 -1.227622e-04
5.970722e-05 9.775191e-05 -1.221087e-04
5.369216e-05 1.010860e-04 -1.214294e-04
4.745571e-05 1.040379e-04 -1.206581e-04
4.104356e-05 1.066274e-04 -1.199100e-04
3.446994e-05 1.088032e-04 -1.191963e-04
2.775529e-05 1.105986e-04 -1.184756e-04
2.095731e-05 1.119977e-04 -1.179093e-04
1.408834e-05 1.129788e-04 -1.160407e-04
7.016154e-06 1.136379e-04 -1.122499e-04
0.000000e+00 -1.706148e-05 -1.162818e-04
-1.479939e-04 -9.084500e-06 -1.141126e-04
-1.471058e-04 -1.825091e-05 -1.178856e-04
-1.457579e-04 -2.713117e-05 -1.197373e-04
-1.438935e-04 -3.593444e-05 -1.202824e-04
-1.414996e-04 -4.460737e-05 -1.209880e-04
-1.385886e-04 -5.310583e-05 -1.216767e-04
-1.352088e-04 -6.136171e-05 -1.223978e-04
-1.313146e-04 -6.941293e-05 -1.230920e-04
-1.269667e-04 -7.718790e-05 -1.236495e-04
-1.221697e-04 -8.463794e-05 -1.241533e-04
-1.168992e-04 -9.178270e-05 -1.244205e-04
-1.112323e-04 -9.855897e-05 -1.245125e-04
-1.051637e-04 -1.049936e-04 -1.244931e-04
-9.864903e-05 -1.110085e-04 -1.241620e-04
-9.182914e-05 -1.166822e-04 -1.237845e-04
-8.461126e-05 -1.218961e-04 -1.232320e-04
-7.711852e-05 -1.266741e-04 -1.225763e-04
-6.933589e-05 -1.310109e-04 -1.219076e-04
-6.130712e-05 -1.348989e-04 -1.211563e-04
-5.303605e-05 -1.382906e-04 -1.204091e-04
-4.455952e-05 -1.411961e-04 -1.196958e-04
-3.589698e-05 -1.435665e-04 -1.189545e-04
-2.710181e-05 -1.454414e-04 -1.183698e-04
-1.825181e-05 -1.467993e-04 -1.165195e-04
-9.064767e-06 -1.477289e-04 -1.127711e-04
0.000000e+00 -1.524657e-04 1.122746e-04
0.000000e+00 -1.588154e-04 3.503744e-04
0.000000e+00 -1.674782e-04 6.002065e-04
-1.675462e-04 -9.273997e-06 8.817982e-04
-1.721456e-04 -2.090788e-05 8.777404e-04
-1.646569e-04 -2.980654e-05 8.785453e-04
-1.638617e-04 -3.920973e-05 8.766986e-04
-1.668803e-04 -5.214106e-05 8.760932e-04
-1.618486e-04 -6.145842e-05 8.768153e-04
-1.538177e-04 -6.891531e-05 8.774554e-04
-1.492792e-04 -7.875164e-05 8.768995e-04
-1.442897e-04 -8.688930e-05 8.751761e-04
-1.380735e-04 -9.510738e-05 8.758091e-04
-1.330828e-04 -1.037064e-04 8.742474e-04
-1.263863e-04 -1.116639e-04 8.757551e-04
-1.182579e-04 -1.186365e-04 8.752137e-04
-1.109474e-04 -1.253638e-04 8.745906e-04
-1.035690e-04 -1.323318e-04 8.759441e-04
-9.550497e-05 -1.382862e-04 8.756542e-04
-8.640667e-05 -1.432887e-04 8.751312e-04
-7.816893e-05 -1.487570e-04 8.757323e-04
-6.869481e-05 -1.530949e-04 8.767799e-04
-6.078398e-05 -1.589353e-04 8.766013e-04
-5.074291e-05 -1.644975e-04 8.760912e-04
-4.015492e-05 -1.632091e-04 8.765575e-04
-3.119832e-05 -1.688836e-04 8.778224e-04
-2.062260e-05 -1.723309e-04 8.767889e-04
-9.215666e-06 -1.664555e-04 8.816115e-04
0.000000e+00 -5.639589e-05 9.218761e-04
0.000000e+00 1.489345e-04 8.916328e-04
0.000000e+00 2.172148e-04 8.642801e-04
0.000000e+00 2.188398e-04 8.526461e-04
0.000000e+00 2.152564e-04 8.450041e-04
0.000000e+00 2.132619e-04 8.369146e-04
0.000000e+00 2.139367e-04 8.290706e-04
0.000000e+00 2.145418e-04 8.208545e-04
0.000000e+00 2.150354e-04 8.126498e-04
0.000000e+00 2.163236e-04 8.048040e-04
0.000000e+00 2.198640e-04 7.964003e-04
0.000000e+00 2.204005e-04 7.878794e-04
0.000000e+00 2.193236e-04 7.793209e-04
0.000000e+00 2.169522e-04 7.709421e-04
0.000000e+00 2.138490e-04 7.628505e-04
0.000000e+00 2.117224e-04 7.548779e-04
0.000000e+00 2.113479e-04 7.469638e-04
0.000000e+00 2.094224e-04 7.386155e-04
0.000000e+00 2.066949e-04 7.308233e-04
0.000000e+00 2.068548e-04 7.228176e-04
0.000000e+00 2.056264e-04 7.143649e-04
0.000000e+00 2.032331e-04 7.062438e-04
0.000000e+00 2.005884e-04 6.982727e-04
0.000000e+00 1.987475e-04 6.903306e-04
0.000000e+00 1.973019e-04 6.825295e-04
0.000000e+00 1.973102e-04 6.746395e-04
0.000000e+00 1.986325e-04 6.668329e-04
0.000000e+00 1.976565e-04 6.581256e-04
0.000000e+00 1.950291e-04 6.498043e-04
0.000000e+00 1.928538e-04 6.423195e-04
0.000000e+00 1.922748e-04 6.341235e-04
0.000000e+00 1.902085e-04 6.259874e-04
0.000000e+00 1.897004e-04 6.181722e-04
0.000000e+00 1.868310e-04 6.092157e-04
0.000000e+00 1.819694e-04 6.016680e-04
0.000000e+00 1.804528e-04 5.938280e-04
0.000000e+00 1.783786e-04 5.858047e-04
0.000000e+00 1.762465e-04 5.779938e-04
0.000000e+00 1.746942e-04 5.701775e-04
0.000000e+00 1.756051e-04 5.625119e-04
0.000000e+00 1.748136e-04 5.539035e-04
0.000000e+00 1.747699e-04 5.464872e-04
0.000000e+00 1.742586e-04 5.373040e-04
0.000000e+00 1.693516e-04 5.289665e-04
0.000000e+00 1.661736e-04 5.215697e-04
0.000000e+00 1.670602e-04 5.143390e-04
0.000000e+00 1.678549e-04 5.057505e-04
0.000000e+00 1.655232e-04 4.973153e-04
0.000000e+00 1.625508e-04 4.896598e-04
0.000000e+00 1.608071e-04 4.817621e-04
0.000000e+00 1.593560e-04 4.742882e-04
0.000000e+00 1.599283e-04 4.664208e-04
0.000000e+00 1.619101e-04 4.589078e-04
0.000000e+00 1.655358e-04 4.509098e-04
0.000000e+00 1.662313e-04 4.420561e-04
0.000000e+00 1.642981e-04 4.339131e-04
0.000000e+00 1.604277e-04 4.254092e-04
0.000000e+00 1.567704e-04 4.180162e-04
0.000000e+00 1.564135e-04 4.108742e-04
0.000000e+00 1.596194e-04 4.038757e-04
0.000000e+00 1.645859e-04 3.954609e-04
0.000000e+00 1.678065e-04 3.875367e-04
0.000000e+00 1.712455e-04 3.789830e-04
0.000000e+00 1.697195e-04 3.700333e-04
0.000000e+00 1.668654e-04 3.624510e-04
0.000000e+00 1.682599e-04 3.551897e-04
0.000000e+00 1.720772e-04 3.473297e-04
0.000000e+00 1.730198e-04 3.388092e-04
0.000000e+00 1.746255e-04 3.312135e-04
0.000000e+00 1.780111e-04 3.231921e-04
0.000000e+00 1.818478e-04 3.150987e-04
0.000000e+00 1.829105e-04 3.061410e-04
0.000000e+00 1.787067e-04 2.976857e-04
0.000000e+00 1.778333e-04 2.905491e-04
0.000000e+00 1.794363e-04 2.828736e-04
0.000000e+00 1.842806e-04 2.755233e-04
0.000000e+00 1.872542e-04 2.662675e-04
0.000000e+00 1.869487e-04 2.584502e-04
0.000000e+00 1.867079e-04 2.499943e-04
0.000000e+00 1.853641e-04 2.420673e-04
0.000000e+00 1.871046e-04 2.348366e-04
0.000000e+00 1.901075e-04 2.270482e-04
0.000000e+00 1.942316e-04 2.190010e-04
0.000000e+00 1.958389e-04 2.101756e-04
0.000000e+00 1.947982e-04 2.021278e-04
0.000000e+00 1.948757e-04 1.940853e-04
0.000000e+00 1.939403e-04 1.863158e-04
0.000000e+00 1.977820e-04 1.788771e-04
0.000000e+00 1.994256e-04 1.703586e-04
0.000000e+00 2.010333e-04 1.621067e-04
0.000000e+00 2.012175e-04 1.540016e-04
0.000000e+00 2.005866e-04 1.456785e-04
0.000000e+00 2.004953e-04 1.383601e-04
0.000000e+00 2.033650e-04 1.302389e-04
0.000000e+00 2.043017e-04 1.217927e-04
0.000000e+00 2.052487e-04 1.140459e-04
0.000000e+00 2.059813e-04 1.056927e-04
0.000000e+00 2.065781e-04 9.787888e-05
0.000000e+00 2.085111e-04 8.996440e-05
0.000000e+00 2.095359e-04 8.194131e-05
0.000000e+00 2.128582e-04 7.432550e-05
0.000000e+00 2.163002e-04 6.563758e-05
0.000000e+00 2.184577e-04 5.799792e-05
0.000000e+00 2.213580e-04 4.884368e-05
0.000000e+00 2.195423e-04 4.076931e-05
0.000000e+00 2.188337e-04 3.225226e-05
0.000000e+00 2.192150e-04 2.473597e-05
0.000000e+00 2.217587e-04 1.646420e-05
0.000000e+00 2.203579e-04 7.775614e-06
2.165496e-04 1.190719e-05 0.000000e+00
2.112692e-04 2.388783e-05 0.000000e+00
2.027718e-04 3.426061e-05 0.000000e+00
1.928077e-04 4.348811e-05 0.000000e+00
1.819800e-04 5.187130e-05 0.000000e+00
1.708038e-04 5.937721e-05 0.000000e+00
1.597628e-04 6.625541e-05 0.000000e+00
1.490938e-04 7.278741e-05 0.000000e+00
1.388854e-04 7.908748e-05 0.000000e+00
1.292725e-04 8.523063e-05 0.000000e+00
1.203357e-04 9.150634e-05 0.000000e+00
1.121969e-04 9.809823e-05 0.000000e+00
1.047781e-04 1.052256e-04 0.000000e+00
9.792853e-05 1.129581e-04 0.000000e+00
9.151465e-05 1.213538e-04 0.000000e+00
8.531190e-05 1.304618e-04 0.000000e+00
7.919530e-05 1.401354e-04 0.000000e+00
7.291811e-05 1.504101e-04 0.000000e+00
6.638609e-05 1.611059e-04 0.000000e+00
5.947695e-05 1.721128e-04 0.000000e+00
5.191844e-05 1.831967e-04 0.000000e+00
4.349436e-05 1.938882e-04 0.000000e+00
3.425067e-05 2.037242e-04 0.000000e+00
2.388393e-05 2.121483e-04 0.000000e+00
1.190529e-05 2.173947e-04 0.000000e+00
2.225009e-04 9.921430e-06 0.000000e+00
2.176780e-04 1.909506e-05 0.000000e+00
2.097753e-04 2.849264e-05 0.000000e+00
2.003285e-04 3.755003e-05 0.000000e+00
1.898618e-04 4.629755e-05 0.000000e+00
1.789273e-04 5.456289e-05 0.000000e+00
1.678992e-04 6.258407e-05 0.000000e+00
1.570434e-04 7.033413e-05 0.000000e+00
1.465135e-04 7.787186e-05 0.000000e+00
1.363315e-04 8.543667e-05 0.000000e+00
1.265961e-04 9.312869e-05 0.000000e+00
1.174044e-04 1.011406e-04 0.000000e+00
1.088285e-04 1.095518e-04 0.000000e+00
1.007119e-04 1.183932e-04 0.000000e+00
9.294654e-05 1.277452e-04 0.000000e+00
8.540465e-05 1.375860e-04 0.000000e+00
7.793049e-05 1.478292e-04 0.000000e+00
7.042665e-05 1.583874e-04 0.000000e+00
6.272349e-05 1.692427e-04 0.000000e+00
5.472721e-05 1.802229e-04 0.000000e+00